TITLE = "  5.00000E+00 [y]"
VARIABLES="X [m]","Y [m]","Z [m]","Liquid Pressure [Pa]","Liquid Density [kg/m^3]","pH","Total H+ [M]","Total HCO3- [M]","Total Ca++ [M]","Total SO4-- [M]","Total UO2++ [M]","Calcite VF [m^3 mnrl/m^3 bulk]","Calcite Rate [mol/m^3/sec]","Material ID"
ZONE T="5.00000E+00", STRANDID=1, SOLUTIONTIME=5.00000E+00, I=100, J=1, K=1, DATAPACKING=POINT
 5.000000E-01  5.000000E-01  5.000000E-01  2.041344E+05  9.972066E+02  3.000039E+00  1.094047E-03  1.000035E-06  1.000047E-06  4.999999E-03  9.999999E-07  0.000000E+00  0.000000E+00    1 
 1.500000E+00  5.000000E-01  5.000000E-01  2.041062E+05  9.972066E+02  3.000040E+00  1.094045E-03  1.001407E-06  1.000732E-06  4.999993E-03  9.999985E-07  0.000000E+00  0.000000E+00    1 
 2.500000E+00  5.000000E-01  5.000000E-01  2.040779E+05  9.972066E+02  3.000047E+00  1.094036E-03  1.010113E-06  1.005080E-06  4.999950E-03  9.999898E-07  0.000000E+00  0.000000E+00    1 
 3.500000E+00  5.000000E-01  5.000000E-01  2.040497E+05  9.972066E+02  3.000079E+00  1.093993E-03  1.049238E-06  1.024624E-06  4.999758E-03  9.999506E-07  0.000000E+00  0.000000E+00    1 
 4.500000E+00  5.000000E-01  5.000000E-01  2.040215E+05  9.972066E+02  3.000190E+00  1.093844E-03  1.186718E-06  1.093295E-06  4.999083E-03  9.998131E-07  0.000000E+00  0.000000E+00    1 
 5.500000E+00  5.000000E-01  5.000000E-01  2.039932E+05  9.972066E+02  3.000515E+00  1.093411E-03  1.586045E-06  1.292758E-06  4.997125E-03  9.994138E-07  0.000000E+00  0.000000E+00    1 
 6.500000E+00  5.000000E-01  5.000000E-01  2.039650E+05  9.972065E+02  3.001324E+00  1.092333E-03  2.580087E-06  1.789282E-06  4.992249E-03  9.984198E-07  0.000000E+00  0.000000E+00    1 
 7.500000E+00  5.000000E-01  5.000000E-01  2.039368E+05  9.972065E+02  3.003100E+00  1.089973E-03  4.755144E-06  2.875721E-06  4.981580E-03  9.962447E-07  0.000000E+00  0.000000E+00    1 
 8.500000E+00  5.000000E-01  5.000000E-01  2.039085E+05  9.972065E+02  3.006603E+00  1.085349E-03  9.017783E-06  5.004907E-06  4.960673E-03  9.919821E-07  0.000000E+00  0.000000E+00    1 
 9.500000E+00  5.000000E-01  5.000000E-01  2.038803E+05  9.972065E+02  3.012916E+00  1.077115E-03  1.660895E-05  8.796690E-06  4.923439E-03  9.843909E-07  0.000000E+00  0.000000E+00    1 
 1.050000E+01  5.000000E-01  5.000000E-01  2.038521E+05  9.972065E+02  3.023459E+00  1.063636E-03  2.903519E-05  1.500359E-05  4.862489E-03  9.719647E-07  0.000000E+00  0.000000E+00    1 
 1.150000E+01  5.000000E-01  5.000000E-01  2.038238E+05  9.972065E+02  3.039994E+00  1.043166E-03  4.790702E-05  2.443006E-05  4.769925E-03  9.530930E-07  0.000000E+00  0.000000E+00    1 
 1.250000E+01  5.000000E-01  5.000000E-01  2.037956E+05  9.972065E+02  3.064645E+00  1.014099E-03  7.470317E-05  3.781472E-05  4.638492E-03  9.262969E-07  0.000000E+00  0.000000E+00    1 
 1.350000E+01  5.000000E-01  5.000000E-01  2.037673E+05  9.972065E+02  3.100004E+00  9.752634E-04  1.105062E-04  5.569832E-05  4.462882E-03  8.904940E-07  0.000000E+00  0.000000E+00    1 
 1.450000E+01  5.000000E-01  5.000000E-01  2.037391E+05  9.972064E+02  3.149403E+00  9.261660E-04  1.557691E-04  7.830712E-05  4.240872E-03  8.452313E-07  0.000000E+00  0.000000E+00    1 
 1.550000E+01  5.000000E-01  5.000000E-01  2.037109E+05  9.972064E+02  3.217567E+00  8.671584E-04  2.101684E-04  1.054795E-04  3.974049E-03  7.908322E-07  0.000000E+00  0.000000E+00    1 
 1.650000E+01  5.000000E-01  5.000000E-01  2.036826E+05  9.972064E+02  3.312169E+00  7.994617E-04  2.725780E-04  1.366531E-04  3.667936E-03  7.284227E-07  0.000000E+00  0.000000E+00    1 
 1.750000E+01  5.000000E-01  5.000000E-01  2.036544E+05  9.972064E+02  3.448067E+00  7.250577E-04  3.411711E-04  1.709153E-04  3.331494E-03  6.598297E-07  0.000000E+00  0.000000E+00    1 
 1.850000E+01  5.000000E-01  5.000000E-01  2.036262E+05  9.972064E+02  3.662529E+00  6.464673E-04  4.136237E-04  2.071054E-04  2.976121E-03  5.873773E-07  0.000000E+00  0.000000E+00    1 
 1.950000E+01  5.000000E-01  5.000000E-01  2.035979E+05  9.972064E+02  4.114940E+00  5.664637E-04  4.873792E-04  2.439462E-04  2.614358E-03  5.136219E-07  0.000000E+00  0.000000E+00    1 
 2.050000E+01  5.000000E-01  5.000000E-01  2.035697E+05  9.972064E+02  5.499669E+00  4.877759E-04  5.599215E-04  2.801810E-04  2.258545E-03  4.410796E-07  0.000000E+00  0.000000E+00    1 
 2.150000E+01  5.000000E-01  5.000000E-01  2.035415E+05  9.972064E+02  6.032486E+00  4.128311E-04  6.290132E-04  3.146923E-04  1.919657E-03  3.719879E-07  0.000000E+00  0.000000E+00    1 
 2.250000E+01  5.000000E-01  5.000000E-01  2.035132E+05  9.972063E+02  6.320652E+00  3.435691E-04  6.928660E-04  3.465867E-04  1.606466E-03  3.081351E-07  0.000000E+00  0.000000E+00    1 
 2.350000E+01  5.000000E-01  5.000000E-01  2.034850E+05  9.972063E+02  6.536054E+00  2.813435E-04  7.502319E-04  3.752409E-04  1.325092E-03  2.507692E-07  0.000000E+00  0.000000E+00    1 
 2.450000E+01  5.000000E-01  5.000000E-01  2.034568E+05  9.972063E+02  6.717598E+00  2.269070E-04  8.004169E-04  4.003083E-04  1.078940E-03  2.005842E-07  0.000000E+00  0.000000E+00    1 
 2.550000E+01  5.000000E-01  5.000000E-01  2.034285E+05  9.972063E+02  6.880185E+00  1.804639E-04  8.432329E-04  4.216949E-04  8.689316E-04  1.577682E-07  0.000000E+00  0.000000E+00    1 
 2.650000E+01  5.000000E-01  5.000000E-01  2.034003E+05  9.972063E+02  7.030757E+00  1.417673E-04  8.789073E-04  4.395142E-04  6.939522E-04  1.220938E-07  0.000000E+00  0.000000E+00    1 
 2.750000E+01  5.000000E-01  5.000000E-01  2.033721E+05  9.972063E+02  7.172619E+00  1.102390E-04  9.079732E-04  4.540327E-04  5.513866E-04  9.302777E-08  0.000000E+00  0.000000E+00    1 
 2.850000E+01  5.000000E-01  5.000000E-01  2.033438E+05  9.972063E+02  7.306878E+00  8.509008E-05  9.311581E-04  4.656135E-04  4.376673E-04  6.984291E-08  0.000000E+00  0.000000E+00    1 
 2.950000E+01  5.000000E-01  5.000000E-01  2.033156E+05  9.972063E+02  7.432982E+00  6.542907E-05  9.492836E-04  4.746672E-04  3.487635E-04  5.171738E-08  0.000000E+00  0.000000E+00    1 
 3.050000E+01  5.000000E-01  5.000000E-01  2.032874E+05  9.972062E+02  7.549032E+00  5.034918E-05  9.631857E-04  4.816113E-04  2.805748E-04  3.781521E-08  0.000000E+00  0.000000E+00    1 
 3.150000E+01  5.000000E-01  5.000000E-01  2.032591E+05  9.972062E+02  7.652325E+00  3.899112E-05  9.736567E-04  4.868415E-04  2.292155E-04  2.734418E-08  0.000000E+00  0.000000E+00    1 
 3.250000E+01  5.000000E-01  5.000000E-01  2.032309E+05  9.972062E+02  7.740316E+00  3.058289E-05  9.814083E-04  4.907134E-04  1.911949E-04  1.959262E-08  0.000000E+00  0.000000E+00    1 
 3.350000E+01  5.000000E-01  5.000000E-01  2.032026E+05  9.972062E+02  7.811701E+00  2.446008E-05  9.870529E-04  4.935329E-04  1.635086E-04  1.394798E-08  0.000000E+00  0.000000E+00    1 
 3.450000E+01  5.000000E-01  5.000000E-01  2.031744E+05  9.972062E+02  7.866956E+00  2.007098E-05  9.910992E-04  4.955540E-04  1.436618E-04  9.901667E-09  0.000000E+00  0.000000E+00    1 
 3.550000E+01  5.000000E-01  5.000000E-01  2.031462E+05  9.972062E+02  7.908028E+00  1.697153E-05  9.939565E-04  4.969813E-04  1.296466E-04  7.044279E-09  0.000000E+00  0.000000E+00    1 
 3.650000E+01  5.000000E-01  5.000000E-01  2.031179E+05  9.972062E+02  7.937578E+00  1.481394E-05  9.959456E-04  4.979748E-04  1.198904E-04  5.055194E-09  0.000000E+00  0.000000E+00    1 
 3.750000E+01  5.000000E-01  5.000000E-01  2.030897E+05  9.972062E+02  7.958294E+00  1.333246E-05  9.973114E-04  4.986570E-04  1.131913E-04  3.689407E-09  0.000000E+00  0.000000E+00    1 
 3.850000E+01  5.000000E-01  5.000000E-01  2.030615E+05  9.972061E+02  7.972517E+00  1.232847E-05  9.982370E-04  4.991194E-04  1.086515E-04  2.763828E-09  0.000000E+00  0.000000E+00    1 
 3.950000E+01  5.000000E-01  5.000000E-01  2.030332E+05  9.972061E+02  7.982114E+00  1.165658E-05  9.988564E-04  4.994288E-04  1.056133E-04  2.144410E-09  0.000000E+00  0.000000E+00    1 
 4.050000E+01  5.000000E-01  5.000000E-01  2.030050E+05  9.972061E+02  7.988493E+00  1.121232E-05  9.992659E-04  4.996333E-04  1.036044E-04  1.734847E-09  0.000000E+00  0.000000E+00    1 
 4.150000E+01  5.000000E-01  5.000000E-01  2.029768E+05  9.972061E+02  7.992676E+00  1.092195E-05  9.995336E-04  4.997670E-04  1.022914E-04  1.467153E-09  0.000000E+00  0.000000E+00    1 
 4.250000E+01  5.000000E-01  5.000000E-01  2.029485E+05  9.972061E+02  7.995385E+00  1.073425E-05  9.997066E-04  4.998535E-04  1.014427E-04  1.294118E-09  0.000000E+00  0.000000E+00    1 
 4.350000E+01  5.000000E-01  5.000000E-01  2.029203E+05  9.972061E+02  7.997120E+00  1.061421E-05  9.998173E-04  4.999087E-04  1.008999E-04  1.183454E-09  0.000000E+00  0.000000E+00    1 
 4.450000E+01  5.000000E-01  5.000000E-01  2.028921E+05  9.972061E+02  7.998219E+00  1.053823E-05  9.998873E-04  4.999437E-04  1.005563E-04  1.113402E-09  0.000000E+00  0.000000E+00    1 
 4.550000E+01  5.000000E-01  5.000000E-01  2.028638E+05  9.972061E+02  7.998909E+00  1.049060E-05  9.999312E-04  4.999656E-04  1.003409E-04  1.069492E-09  0.000000E+00  0.000000E+00    1 
 4.650000E+01  5.000000E-01  5.000000E-01  2.028356E+05  9.972060E+02  7.999337E+00  1.046102E-05  9.999585E-04  4.999792E-04  1.002072E-04  1.042227E-09  0.000000E+00  0.000000E+00    1 
 4.750000E+01  5.000000E-01  5.000000E-01  2.028074E+05  9.972060E+02  7.999600E+00  1.044283E-05  9.999752E-04  4.999876E-04  1.001249E-04  1.025452E-09  0.000000E+00  0.000000E+00    1 
 4.850000E+01  5.000000E-01  5.000000E-01  2.027791E+05  9.972060E+02  7.999761E+00  1.043173E-05  9.999854E-04  4.999927E-04  1.000747E-04  1.015221E-09  0.000000E+00  0.000000E+00    1 
 4.950000E+01  5.000000E-01  5.000000E-01  2.027509E+05  9.972060E+02  7.999858E+00  1.042502E-05  9.999916E-04  4.999958E-04  1.000444E-04  1.009034E-09  0.000000E+00  0.000000E+00    1 
 5.050000E+01  5.000000E-01  5.000000E-01  2.027226E+05  9.972060E+02  7.999916E+00  1.042099E-05  9.999953E-04  4.999977E-04  1.000262E-04  1.005323E-09  0.000000E+00  0.000000E+00    1 
 5.150000E+01  5.000000E-01  5.000000E-01  2.026944E+05  9.972060E+02  7.999951E+00  1.041859E-05  9.999975E-04  4.999988E-04  1.000153E-04  1.003114E-09  0.000000E+00  0.000000E+00    1 
 5.250000E+01  5.000000E-01  5.000000E-01  2.026662E+05  9.972060E+02  7.999972E+00  1.041718E-05  9.999988E-04  4.999994E-04  1.000089E-04  1.001810E-09  0.000000E+00  0.000000E+00    1 
 5.350000E+01  5.000000E-01  5.000000E-01  2.026379E+05  9.972060E+02  7.999984E+00  1.041635E-05  9.999995E-04  4.999998E-04  1.000052E-04  1.001045E-09  0.000000E+00  0.000000E+00    1 
 5.450000E+01  5.000000E-01  5.000000E-01  2.026097E+05  9.972059E+02  7.999991E+00  1.041587E-05  1.000000E-03  5.000000E-04  1.000030E-04  1.000599E-09  0.000000E+00  0.000000E+00    1 
 5.550000E+01  5.000000E-01  5.000000E-01  2.025815E+05  9.972059E+02  7.999995E+00  1.041559E-05  1.000000E-03  5.000001E-04  1.000017E-04  1.000342E-09  0.000000E+00  0.000000E+00    1 
 5.650000E+01  5.000000E-01  5.000000E-01  2.025532E+05  9.972059E+02  7.999997E+00  1.041543E-05  1.000000E-03  5.000002E-04  1.000010E-04  1.000194E-09  0.000000E+00  0.000000E+00    1 
 5.750000E+01  5.000000E-01  5.000000E-01  2.025250E+05  9.972059E+02  7.999998E+00  1.041533E-05  1.000000E-03  5.000002E-04  1.000006E-04  1.000109E-09  0.000000E+00  0.000000E+00    1 
 5.850000E+01  5.000000E-01  5.000000E-01  2.024968E+05  9.972059E+02  7.999999E+00  1.041528E-05  1.000000E-03  5.000002E-04  1.000004E-04  1.000062E-09  0.000000E+00  0.000000E+00    1 
 5.950000E+01  5.000000E-01  5.000000E-01  2.024685E+05  9.972059E+02  7.999999E+00  1.041525E-05  1.000000E-03  5.000002E-04  1.000002E-04  1.000035E-09  0.000000E+00  0.000000E+00    1 
 6.050000E+01  5.000000E-01  5.000000E-01  2.024403E+05  9.972059E+02  8.000000E+00  1.041524E-05  1.000000E-03  5.000002E-04  1.000001E-04  1.000019E-09  0.000000E+00  0.000000E+00    1 
 6.150000E+01  5.000000E-01  5.000000E-01  2.024121E+05  9.972059E+02  8.000000E+00  1.041523E-05  1.000000E-03  5.000002E-04  1.000001E-04  1.000011E-09  0.000000E+00  0.000000E+00    1 
 6.250000E+01  5.000000E-01  5.000000E-01  2.023838E+05  9.972058E+02  8.000000E+00  1.041522E-05  1.000000E-03  5.000002E-04  1.000001E-04  1.000006E-09  0.000000E+00  0.000000E+00    1 
 6.350000E+01  5.000000E-01  5.000000E-01  2.023556E+05  9.972058E+02  8.000000E+00  1.041522E-05  1.000000E-03  5.000002E-04  1.000001E-04  1.000004E-09  0.000000E+00  0.000000E+00    1 
 6.450000E+01  5.000000E-01  5.000000E-01  2.023274E+05  9.972058E+02  8.000000E+00  1.041522E-05  1.000000E-03  5.000002E-04  1.000001E-04  1.000002E-09  0.000000E+00  0.000000E+00    1 
 6.550000E+01  5.000000E-01  5.000000E-01  2.022991E+05  9.972058E+02  8.000000E+00  1.041522E-05  1.000000E-03  5.000002E-04  1.000000E-04  1.000001E-09  0.000000E+00  0.000000E+00    1 
 6.650000E+01  5.000000E-01  5.000000E-01  2.022709E+05  9.972058E+02  8.000000E+00  1.041522E-05  1.000000E-03  5.000002E-04  1.000000E-04  1.000001E-09  0.000000E+00  0.000000E+00    1 
 6.750000E+01  5.000000E-01  5.000000E-01  2.022426E+05  9.972058E+02  8.000000E+00  1.041522E-05  1.000000E-03  5.000002E-04  1.000000E-04  1.000001E-09  0.000000E+00  0.000000E+00    1 
 6.850000E+01  5.000000E-01  5.000000E-01  2.022144E+05  9.972058E+02  8.000000E+00  1.041522E-05  1.000000E-03  5.000002E-04  1.000000E-04  1.000001E-09  0.000000E+00  0.000000E+00    1 
 6.950000E+01  5.000000E-01  5.000000E-01  2.021862E+05  9.972058E+02  8.000000E+00  1.041522E-05  1.000000E-03  5.000002E-04  1.000000E-04  1.000001E-09  0.000000E+00  0.000000E+00    1 
 7.050000E+01  5.000000E-01  5.000000E-01  2.021579E+05  9.972057E+02  8.000000E+00  1.041522E-05  1.000000E-03  5.000002E-04  1.000000E-04  1.000000E-09  0.000000E+00  0.000000E+00    1 
 7.150000E+01  5.000000E-01  5.000000E-01  2.021297E+05  9.972057E+02  8.000000E+00  1.041521E-05  1.000000E-03  5.000002E-04  1.000000E-04  1.000000E-09  0.000000E+00  0.000000E+00    1 
 7.250000E+01  5.000000E-01  5.000000E-01  2.021015E+05  9.972057E+02  8.000000E+00  1.041521E-05  1.000000E-03  5.000002E-04  1.000000E-04  1.000000E-09  0.000000E+00  0.000000E+00    1 
 7.350000E+01  5.000000E-01  5.000000E-01  2.020732E+05  9.972057E+02  8.000000E+00  1.041521E-05  1.000000E-03  5.000002E-04  1.000000E-04  1.000000E-09  0.000000E+00  0.000000E+00    1 
 7.450000E+01  5.000000E-01  5.000000E-01  2.020450E+05  9.972057E+02  8.000000E+00  1.041521E-05  1.000000E-03  5.000002E-04  1.000000E-04  1.000000E-09  0.000000E+00  0.000000E+00    1 
 7.550000E+01  5.000000E-01  5.000000E-01  2.020168E+05  9.972057E+02  8.000000E+00  1.041521E-05  1.000000E-03  5.000002E-04  1.000000E-04  1.000000E-09  0.000000E+00  0.000000E+00    1 
 7.650000E+01  5.000000E-01  5.000000E-01  2.019885E+05  9.972057E+02  8.000000E+00  1.041521E-05  1.000000E-03  5.000002E-04  1.000000E-04  1.000000E-09  0.000000E+00  0.000000E+00    1 
 7.750000E+01  5.000000E-01  5.000000E-01  2.019603E+05  9.972056E+02  8.000000E+00  1.041521E-05  1.000000E-03  5.000001E-04  1.000000E-04  1.000000E-09  0.000000E+00  0.000000E+00    1 
 7.850000E+01  5.000000E-01  5.000000E-01  2.019321E+05  9.972056E+02  8.000000E+00  1.041521E-05  1.000000E-03  5.000001E-04  1.000000E-04  1.000000E-09  0.000000E+00  0.000000E+00    1 
 7.950000E+01  5.000000E-01  5.000000E-01  2.019038E+05  9.972056E+02  8.000000E+00  1.041521E-05  1.000000E-03  5.000001E-04  1.000000E-04  1.000000E-09  0.000000E+00  0.000000E+00    1 
 8.050000E+01  5.000000E-01  5.000000E-01  2.018756E+05  9.972056E+02  8.000000E+00  1.041521E-05  1.000000E-03  5.000001E-04  1.000000E-04  1.000000E-09  0.000000E+00  0.000000E+00    1 
 8.150000E+01  5.000000E-01  5.000000E-01  2.018474E+05  9.972056E+02  8.000000E+00  1.041521E-05  1.000000E-03  5.000001E-04  1.000000E-04  1.000000E-09  0.000000E+00  0.000000E+00    1 
 8.250000E+01  5.000000E-01  5.000000E-01  2.018191E+05  9.972056E+02  8.000000E+00  1.041521E-05  1.000000E-03  5.000001E-04  1.000000E-04  1.000000E-09  0.000000E+00  0.000000E+00    1 
 8.350000E+01  5.000000E-01  5.000000E-01  2.017909E+05  9.972056E+02  8.000000E+00  1.041521E-05  1.000000E-03  5.000001E-04  1.000000E-04  1.000000E-09  0.000000E+00  0.000000E+00    1 
 8.450000E+01  5.000000E-01  5.000000E-01  2.017626E+05  9.972056E+02  8.000000E+00  1.041521E-05  1.000000E-03  5.000001E-04  1.000000E-04  1.000000E-09  0.000000E+00  0.000000E+00    1 
 8.550000E+01  5.000000E-01  5.000000E-01  2.017344E+05  9.972055E+02  8.000000E+00  1.041521E-05  1.000000E-03  5.000001E-04  1.000000E-04  1.000000E-09  0.000000E+00  0.000000E+00    1 
 8.650000E+01  5.000000E-01  5.000000E-01  2.017062E+05  9.972055E+02  8.000000E+00  1.041521E-05  1.000000E-03  5.000001E-04  1.000000E-04  1.000000E-09  0.000000E+00  0.000000E+00    1 
 8.750000E+01  5.000000E-01  5.000000E-01  2.016779E+05  9.972055E+02  8.000000E+00  1.041521E-05  1.000000E-03  5.000001E-04  1.000000E-04  1.000000E-09  0.000000E+00  0.000000E+00    1 
 8.850000E+01  5.000000E-01  5.000000E-01  2.016497E+05  9.972055E+02  8.000000E+00  1.041521E-05  1.000000E-03  5.000001E-04  1.000000E-04  1.000000E-09  0.000000E+00  0.000000E+00    1 
 8.950000E+01  5.000000E-01  5.000000E-01  2.016215E+05  9.972055E+02  8.000000E+00  1.041521E-05  1.000000E-03  5.000001E-04  1.000000E-04  1.000000E-09  0.000000E+00  0.000000E+00    1 
 9.050000E+01  5.000000E-01  5.000000E-01  2.015932E+05  9.972055E+02  8.000000E+00  1.041521E-05  1.000000E-03  5.000001E-04  1.000000E-04  1.000000E-09  0.000000E+00  0.000000E+00    1 
 9.150000E+01  5.000000E-01  5.000000E-01  2.015650E+05  9.972055E+02  8.000000E+00  1.041521E-05  1.000000E-03  5.000001E-04  1.000000E-04  1.000000E-09  0.000000E+00  0.000000E+00    1 
 9.250000E+01  5.000000E-01  5.000000E-01  2.015368E+05  9.972055E+02  8.000000E+00  1.041521E-05  1.000000E-03  5.000000E-04  1.000000E-04  1.000000E-09  0.000000E+00  0.000000E+00    1 
 9.350000E+01  5.000000E-01  5.000000E-01  2.015085E+05  9.972054E+02  8.000000E+00  1.041521E-05  1.000000E-03  5.000000E-04  1.000000E-04  1.000000E-09  0.000000E+00  0.000000E+00    1 
 9.450000E+01  5.000000E-01  5.000000E-01  2.014803E+05  9.972054E+02  8.000000E+00  1.041521E-05  1.000000E-03  5.000000E-04  1.000000E-04  1.000000E-09  0.000000E+00  0.000000E+00    1 
 9.550000E+01  5.000000E-01  5.000000E-01  2.014521E+05  9.972054E+02  8.000000E+00  1.041521E-05  1.000000E-03  5.000000E-04  1.000000E-04  1.000000E-09  0.000000E+00  0.000000E+00    1 
 9.650000E+01  5.000000E-01  5.000000E-01  2.014238E+05  9.972054E+02  8.000000E+00  1.041521E-05  1.000000E-03  5.000000E-04  1.000000E-04  1.000000E-09  0.000000E+00  0.000000E+00    1 
 9.750000E+01  5.000000E-01  5.000000E-01  2.013956E+05  9.972054E+02  8.000000E+00  1.041521E-05  1.000000E-03  5.000000E-04  1.000000E-04  1.000000E-09  0.000000E+00  0.000000E+00    1 
 9.850000E+01  5.000000E-01  5.000000E-01  2.013674E+05  9.972054E+02  8.000000E+00  1.041521E-05  1.000000E-03  5.000000E-04  1.000000E-04  1.000000E-09  0.000000E+00  0.000000E+00    1 
 9.950000E+01  5.000000E-01  5.000000E-01  2.013391E+05  9.972054E+02  8.000000E+00  1.041521E-05  1.000000E-03  5.000000E-04  1.000000E-04  1.000000E-09  0.000000E+00  0.000000E+00    1 
