TITLE = "  2.00000E+01 [y]"
VARIABLES="X [m]","Y [m]","Z [m]","Liquid Pressure [Pa]","Liquid Density [kg/m^3]","pH","Total H+ [M]","Total HCO3- [M]","Total Ca++ [M]","Total SO4-- [M]","Total UO2++ [M]","Calcite VF [m^3 mnrl/m^3 bulk]","Calcite Rate [mol/m^3/sec]","Material ID"
ZONE T="2.00000E+01", STRANDID=1, SOLUTIONTIME=2.00000E+01, I=100, J=1, K=1, DATAPACKING=POINT
 5.000000E-01  5.000000E-01  5.000000E-01  2.041344E+05  9.972066E+02  3.000039E+00  1.094047E-03  9.999154E-07  9.999869E-07  5.000000E-03  1.000000E-06  0.000000E+00  0.000000E+00    1 
 1.500000E+00  5.000000E-01  5.000000E-01  2.041062E+05  9.972066E+02  3.000039E+00  1.094047E-03  9.999154E-07  9.999868E-07  5.000000E-03  1.000000E-06  0.000000E+00  0.000000E+00    1 
 2.500000E+00  5.000000E-01  5.000000E-01  2.040779E+05  9.972066E+02  3.000039E+00  1.094047E-03  9.999154E-07  9.999868E-07  5.000000E-03  1.000000E-06  0.000000E+00  0.000000E+00    1 
 3.500000E+00  5.000000E-01  5.000000E-01  2.040497E+05  9.972066E+02  3.000039E+00  1.094047E-03  9.999154E-07  9.999868E-07  5.000000E-03  1.000000E-06  0.000000E+00  0.000000E+00    1 
 4.500000E+00  5.000000E-01  5.000000E-01  2.040215E+05  9.972066E+02  3.000039E+00  1.094047E-03  9.999154E-07  9.999868E-07  5.000000E-03  9.999999E-07  0.000000E+00  0.000000E+00    1 
 5.500000E+00  5.000000E-01  5.000000E-01  2.039932E+05  9.972066E+02  3.000039E+00  1.094047E-03  9.999153E-07  9.999868E-07  5.000000E-03  9.999999E-07  0.000000E+00  0.000000E+00    1 
 6.500000E+00  5.000000E-01  5.000000E-01  2.039650E+05  9.972065E+02  3.000039E+00  1.094047E-03  9.999153E-07  9.999868E-07  5.000000E-03  9.999999E-07  0.000000E+00  0.000000E+00    1 
 7.500000E+00  5.000000E-01  5.000000E-01  2.039368E+05  9.972065E+02  3.000039E+00  1.094047E-03  9.999153E-07  9.999868E-07  5.000000E-03  9.999999E-07  0.000000E+00  0.000000E+00    1 
 8.500000E+00  5.000000E-01  5.000000E-01  2.039085E+05  9.972065E+02  3.000039E+00  1.094047E-03  9.999153E-07  9.999868E-07  4.999999E-03  9.999999E-07  0.000000E+00  0.000000E+00    1 
 9.500000E+00  5.000000E-01  5.000000E-01  2.038803E+05  9.972065E+02  3.000039E+00  1.094047E-03  9.999153E-07  9.999867E-07  4.999999E-03  9.999999E-07  0.000000E+00  0.000000E+00    1 
 1.050000E+01  5.000000E-01  5.000000E-01  2.038521E+05  9.972065E+02  3.000039E+00  1.094047E-03  9.999153E-07  9.999867E-07  4.999999E-03  9.999999E-07  0.000000E+00  0.000000E+00    1 
 1.150000E+01  5.000000E-01  5.000000E-01  2.038238E+05  9.972065E+02  3.000039E+00  1.094047E-03  9.999153E-07  9.999867E-07  4.999999E-03  9.999999E-07  0.000000E+00  0.000000E+00    1 
 1.250000E+01  5.000000E-01  5.000000E-01  2.037956E+05  9.972065E+02  3.000039E+00  1.094046E-03  9.999153E-07  9.999867E-07  4.999999E-03  9.999998E-07  0.000000E+00  0.000000E+00    1 
 1.350000E+01  5.000000E-01  5.000000E-01  2.037673E+05  9.972065E+02  3.000039E+00  1.094046E-03  9.999152E-07  9.999867E-07  4.999999E-03  9.999998E-07  0.000000E+00  0.000000E+00    1 
 1.450000E+01  5.000000E-01  5.000000E-01  2.037391E+05  9.972064E+02  3.000039E+00  1.094046E-03  9.999152E-07  9.999867E-07  4.999999E-03  9.999998E-07  0.000000E+00  0.000000E+00    1 
 1.550000E+01  5.000000E-01  5.000000E-01  2.037109E+05  9.972064E+02  3.000039E+00  1.094046E-03  9.999152E-07  9.999867E-07  4.999999E-03  9.999998E-07  0.000000E+00  0.000000E+00    1 
 1.650000E+01  5.000000E-01  5.000000E-01  2.036826E+05  9.972064E+02  3.000039E+00  1.094046E-03  9.999152E-07  9.999867E-07  4.999999E-03  9.999998E-07  0.000000E+00  0.000000E+00    1 
 1.750000E+01  5.000000E-01  5.000000E-01  2.036544E+05  9.972064E+02  3.000039E+00  1.094046E-03  9.999152E-07  9.999866E-07  4.999999E-03  9.999998E-07  0.000000E+00  0.000000E+00    1 
 1.850000E+01  5.000000E-01  5.000000E-01  2.036262E+05  9.972064E+02  3.000039E+00  1.094046E-03  9.999152E-07  9.999866E-07  4.999999E-03  9.999998E-07  0.000000E+00  0.000000E+00    1 
 1.950000E+01  5.000000E-01  5.000000E-01  2.035979E+05  9.972064E+02  3.000039E+00  1.094046E-03  9.999152E-07  9.999866E-07  4.999999E-03  9.999998E-07  0.000000E+00  0.000000E+00    1 
 2.050000E+01  5.000000E-01  5.000000E-01  2.035697E+05  9.972064E+02  3.000039E+00  1.094046E-03  9.999152E-07  9.999866E-07  4.999999E-03  9.999997E-07  0.000000E+00  0.000000E+00    1 
 2.150000E+01  5.000000E-01  5.000000E-01  2.035415E+05  9.972064E+02  3.000039E+00  1.094046E-03  9.999153E-07  9.999867E-07  4.999999E-03  9.999997E-07  0.000000E+00  0.000000E+00    1 
 2.250000E+01  5.000000E-01  5.000000E-01  2.035132E+05  9.972063E+02  3.000039E+00  1.094046E-03  9.999156E-07  9.999868E-07  4.999999E-03  9.999997E-07  0.000000E+00  0.000000E+00    1 
 2.350000E+01  5.000000E-01  5.000000E-01  2.034850E+05  9.972063E+02  3.000039E+00  1.094046E-03  9.999163E-07  9.999872E-07  4.999998E-03  9.999997E-07  0.000000E+00  0.000000E+00    1 
 2.450000E+01  5.000000E-01  5.000000E-01  2.034568E+05  9.972063E+02  3.000039E+00  1.094046E-03  9.999179E-07  9.999879E-07  4.999998E-03  9.999997E-07  0.000000E+00  0.000000E+00    1 
 2.550000E+01  5.000000E-01  5.000000E-01  2.034285E+05  9.972063E+02  3.000039E+00  1.094046E-03  9.999213E-07  9.999897E-07  4.999998E-03  9.999997E-07  0.000000E+00  0.000000E+00    1 
 2.650000E+01  5.000000E-01  5.000000E-01  2.034003E+05  9.972063E+02  3.000039E+00  1.094046E-03  9.999289E-07  9.999934E-07  4.999998E-03  9.999996E-07  0.000000E+00  0.000000E+00    1 
 2.750000E+01  5.000000E-01  5.000000E-01  2.033721E+05  9.972063E+02  3.000039E+00  1.094046E-03  9.999447E-07  1.000001E-06  4.999998E-03  9.999996E-07  0.000000E+00  0.000000E+00    1 
 2.850000E+01  5.000000E-01  5.000000E-01  2.033438E+05  9.972063E+02  3.000039E+00  1.094046E-03  9.999769E-07  1.000017E-06  4.999998E-03  9.999996E-07  0.000000E+00  0.000000E+00    1 
 2.950000E+01  5.000000E-01  5.000000E-01  2.033156E+05  9.972063E+02  3.000039E+00  1.094046E-03  1.000041E-06  1.000049E-06  4.999997E-03  9.999995E-07  0.000000E+00  0.000000E+00    1 
 3.050000E+01  5.000000E-01  5.000000E-01  2.032874E+05  9.972062E+02  3.000039E+00  1.094046E-03  1.000164E-06  1.000111E-06  4.999997E-03  9.999994E-07  0.000000E+00  0.000000E+00    1 
 3.150000E+01  5.000000E-01  5.000000E-01  2.032591E+05  9.972062E+02  3.000039E+00  1.094046E-03  1.000396E-06  1.000227E-06  4.999996E-03  9.999991E-07  0.000000E+00  0.000000E+00    1 
 3.250000E+01  5.000000E-01  5.000000E-01  2.032309E+05  9.972062E+02  3.000039E+00  1.094045E-03  1.000822E-06  1.000440E-06  4.999993E-03  9.999987E-07  0.000000E+00  0.000000E+00    1 
 3.350000E+01  5.000000E-01  5.000000E-01  2.032026E+05  9.972062E+02  3.000040E+00  1.094044E-03  1.001589E-06  1.000823E-06  4.999990E-03  9.999979E-07  0.000000E+00  0.000000E+00    1 
 3.450000E+01  5.000000E-01  5.000000E-01  2.031744E+05  9.972062E+02  3.000041E+00  1.094043E-03  1.002935E-06  1.001495E-06  4.999983E-03  9.999965E-07  0.000000E+00  0.000000E+00    1 
 3.550000E+01  5.000000E-01  5.000000E-01  2.031462E+05  9.972062E+02  3.000043E+00  1.094040E-03  1.005251E-06  1.002652E-06  4.999972E-03  9.999942E-07  0.000000E+00  0.000000E+00    1 
 3.650000E+01  5.000000E-01  5.000000E-01  2.031179E+05  9.972062E+02  3.000046E+00  1.094036E-03  1.009151E-06  1.004600E-06  4.999952E-03  9.999903E-07  0.000000E+00  0.000000E+00    1 
 3.750000E+01  5.000000E-01  5.000000E-01  2.030897E+05  9.972062E+02  3.000051E+00  1.094029E-03  1.015588E-06  1.007815E-06  4.999921E-03  9.999838E-07  0.000000E+00  0.000000E+00    1 
 3.850000E+01  5.000000E-01  5.000000E-01  2.030615E+05  9.972061E+02  3.000060E+00  1.094018E-03  1.026009E-06  1.013020E-06  4.999870E-03  9.999734E-07  0.000000E+00  0.000000E+00    1 
 3.950000E+01  5.000000E-01  5.000000E-01  2.030332E+05  9.972061E+02  3.000073E+00  1.094000E-03  1.042561E-06  1.021288E-06  4.999788E-03  9.999569E-07  0.000000E+00  0.000000E+00    1 
 4.050000E+01  5.000000E-01  5.000000E-01  2.030050E+05  9.972061E+02  3.000094E+00  1.093972E-03  1.068376E-06  1.034183E-06  4.999662E-03  9.999310E-07  0.000000E+00  0.000000E+00    1 
 4.150000E+01  5.000000E-01  5.000000E-01  2.029768E+05  9.972061E+02  3.000126E+00  1.093929E-03  1.107933E-06  1.053941E-06  4.999468E-03  9.998915E-07  0.000000E+00  0.000000E+00    1 
 4.250000E+01  5.000000E-01  5.000000E-01  2.029485E+05  9.972061E+02  3.000174E+00  1.093864E-03  1.167509E-06  1.083700E-06  4.999175E-03  9.998319E-07  0.000000E+00  0.000000E+00    1 
 4.350000E+01  5.000000E-01  5.000000E-01  2.029203E+05  9.972061E+02  3.000245E+00  1.093769E-03  1.255753E-06  1.127777E-06  4.998742E-03  9.997436E-07  0.000000E+00  0.000000E+00    1 
 4.450000E+01  5.000000E-01  5.000000E-01  2.028921E+05  9.972061E+02  3.000350E+00  1.093629E-03  1.384355E-06  1.192014E-06  4.998112E-03  9.996150E-07  0.000000E+00  0.000000E+00    1 
 4.550000E+01  5.000000E-01  5.000000E-01  2.028638E+05  9.972061E+02  3.000499E+00  1.093429E-03  1.568844E-06  1.284166E-06  4.997207E-03  9.994305E-07  0.000000E+00  0.000000E+00    1 
 4.650000E+01  5.000000E-01  5.000000E-01  2.028356E+05  9.972060E+02  3.000710E+00  1.093146E-03  1.829482E-06  1.414354E-06  4.995928E-03  9.991698E-07  0.000000E+00  0.000000E+00    1 
 4.750000E+01  5.000000E-01  5.000000E-01  2.028074E+05  9.972060E+02  3.001004E+00  1.092753E-03  2.192253E-06  1.595559E-06  4.994149E-03  9.988071E-07  0.000000E+00  0.000000E+00    1 
 4.850000E+01  5.000000E-01  5.000000E-01  2.027791E+05  9.972060E+02  3.001408E+00  1.092213E-03  2.689914E-06  1.844140E-06  4.991708E-03  9.983094E-07  0.000000E+00  0.000000E+00    1 
 4.950000E+01  5.000000E-01  5.000000E-01  2.027509E+05  9.972060E+02  3.001955E+00  1.091483E-03  3.363048E-06  2.180370E-06  4.988406E-03  9.976362E-07  0.000000E+00  0.000000E+00    1 
 5.050000E+01  5.000000E-01  5.000000E-01  2.027226E+05  9.972060E+02  3.002687E+00  1.090509E-03  4.261101E-06  2.628947E-06  4.984001E-03  9.967382E-07  0.000000E+00  0.000000E+00    1 
 5.150000E+01  5.000000E-01  5.000000E-01  2.026944E+05  9.972060E+02  3.003651E+00  1.089226E-03  5.443284E-06  3.219447E-06  4.978202E-03  9.955560E-07  0.000000E+00  0.000000E+00    1 
 5.250000E+01  5.000000E-01  5.000000E-01  2.026662E+05  9.972060E+02  3.004908E+00  1.087560E-03  6.979311E-06  3.986691E-06  4.970668E-03  9.940200E-07  0.000000E+00  0.000000E+00    1 
 5.350000E+01  5.000000E-01  5.000000E-01  2.026379E+05  9.972060E+02  3.006526E+00  1.085423E-03  8.949852E-06  4.970976E-06  4.961003E-03  9.920494E-07  0.000000E+00  0.000000E+00    1 
 5.450000E+01  5.000000E-01  5.000000E-01  2.026097E+05  9.972059E+02  3.008586E+00  1.082714E-03  1.144664E-05  6.218119E-06  4.948756E-03  9.895526E-07  0.000000E+00  0.000000E+00    1 
 5.550000E+01  5.000000E-01  5.000000E-01  2.025815E+05  9.972059E+02  3.011180E+00  1.079324E-03  1.457212E-05  7.779293E-06  4.933426E-03  9.864272E-07  0.000000E+00  0.000000E+00    1 
 5.650000E+01  5.000000E-01  5.000000E-01  2.025532E+05  9.972059E+02  3.014411E+00  1.075130E-03  1.843861E-05  9.710605E-06  4.914461E-03  9.825607E-07  0.000000E+00  0.000000E+00    1 
 5.750000E+01  5.000000E-01  5.000000E-01  2.025250E+05  9.972059E+02  3.018396E+00  1.070001E-03  2.316691E-05  1.207239E-05  4.891269E-03  9.778324E-07  0.000000E+00  0.000000E+00    1 
 5.850000E+01  5.000000E-01  5.000000E-01  2.024968E+05  9.972059E+02  3.023268E+00  1.063799E-03  2.888429E-05  1.492821E-05  4.863226E-03  9.721150E-07  0.000000E+00  0.000000E+00    1 
 5.950000E+01  5.000000E-01  5.000000E-01  2.024685E+05  9.972059E+02  3.029170E+00  1.056382E-03  3.572190E-05  1.834360E-05  4.829688E-03  9.652774E-07  0.000000E+00  0.000000E+00    1 
 6.050000E+01  5.000000E-01  5.000000E-01  2.024403E+05  9.972059E+02  3.036262E+00  1.047607E-03  4.381172E-05  2.238446E-05  4.790009E-03  9.571876E-07  0.000000E+00  0.000000E+00    1 
 6.150000E+01  5.000000E-01  5.000000E-01  2.024121E+05  9.972059E+02  3.044721E+00  1.037334E-03  5.328285E-05  2.711528E-05  4.743554E-03  9.477165E-07  0.000000E+00  0.000000E+00    1 
 6.250000E+01  5.000000E-01  5.000000E-01  2.023838E+05  9.972058E+02  3.054742E+00  1.025429E-03  6.425766E-05  3.259720E-05  4.689723E-03  9.367417E-07  0.000000E+00  0.000000E+00    1 
 6.350000E+01  5.000000E-01  5.000000E-01  2.023556E+05  9.972058E+02  3.066541E+00  1.011773E-03  7.684754E-05  3.888583E-05  4.627971E-03  9.241519E-07  0.000000E+00  0.000000E+00    1 
 6.450000E+01  5.000000E-01  5.000000E-01  2.023274E+05  9.972058E+02  3.080359E+00  9.962601E-04  9.114865E-05  4.602923E-05  4.557826E-03  9.098508E-07  0.000000E+00  0.000000E+00    1 
 6.550000E+01  5.000000E-01  5.000000E-01  2.022991E+05  9.972058E+02  3.096467E+00  9.788079E-04  1.072378E-04  5.406576E-05  4.478910E-03  8.937617E-07  0.000000E+00  0.000000E+00    1 
 6.650000E+01  5.000000E-01  5.000000E-01  2.022709E+05  9.972058E+02  3.115176E+00  9.593580E-04  1.251687E-04  6.302222E-05  4.390961E-03  8.758309E-07  0.000000E+00  0.000000E+00    1 
 6.750000E+01  5.000000E-01  5.000000E-01  2.022426E+05  9.972058E+02  3.136848E+00  9.378810E-04  1.449684E-04  7.291216E-05  4.293845E-03  8.560313E-07  0.000000E+00  0.000000E+00    1 
 6.850000E+01  5.000000E-01  5.000000E-01  2.022144E+05  9.972058E+02  3.161911E+00  9.143791E-04  1.666348E-04  8.373455E-05  4.187573E-03  8.343650E-07  0.000000E+00  0.000000E+00    1 
 6.950000E+01  5.000000E-01  5.000000E-01  2.021862E+05  9.972058E+02  3.190887E+00  8.888881E-04  1.901350E-04  9.547286E-05  4.072307E-03  8.108650E-07  0.000000E+00  0.000000E+00    1 
 7.050000E+01  5.000000E-01  5.000000E-01  2.021579E+05  9.972057E+02  3.224428E+00  8.614787E-04  2.154037E-04  1.080946E-04  3.948367E-03  7.855964E-07  0.000000E+00  0.000000E+00    1 
 7.150000E+01  5.000000E-01  5.000000E-01  2.021297E+05  9.972057E+02  3.263371E+00  8.322562E-04  2.423440E-04  1.215512E-04  3.816227E-03  7.586563E-07  0.000000E+00  0.000000E+00    1 
 7.250000E+01  5.000000E-01  5.000000E-01  2.021015E+05  9.972057E+02  3.308836E+00  8.013592E-04  2.708280E-04  1.357790E-04  3.676516E-03  7.301726E-07  0.000000E+00  0.000000E+00    1 
 7.350000E+01  5.000000E-01  5.000000E-01  2.020732E+05  9.972057E+02  3.362379E+00  7.689577E-04  3.006990E-04  1.506995E-04  3.530002E-03  7.003018E-07  0.000000E+00  0.000000E+00    1 
 7.450000E+01  5.000000E-01  5.000000E-01  2.020450E+05  9.972057E+02  3.426269E+00  7.352498E-04  3.317743E-04  1.662216E-04  3.377580E-03  6.692266E-07  0.000000E+00  0.000000E+00    1 
 7.550000E+01  5.000000E-01  5.000000E-01  2.020168E+05  9.972057E+02  3.504033E+00  7.004573E-04  3.638496E-04  1.822432E-04  3.220255E-03  6.371515E-07  0.000000E+00  0.000000E+00    1 
 7.650000E+01  5.000000E-01  5.000000E-01  2.019885E+05  9.972057E+02  3.601611E+00  6.648212E-04  3.967025E-04  1.986532E-04  3.059114E-03  6.042988E-07  0.000000E+00  0.000000E+00    1 
 7.750000E+01  5.000000E-01  5.000000E-01  2.019603E+05  9.972056E+02  3.730243E+00  6.285963E-04  4.300983E-04  2.153344E-04  2.895311E-03  5.709030E-07  0.000000E+00  0.000000E+00    1 
 7.850000E+01  5.000000E-01  5.000000E-01  2.019321E+05  9.972056E+02  3.915388E+00  5.920451E-04  4.637948E-04  2.321658E-04  2.730033E-03  5.372065E-07  0.000000E+00  0.000000E+00    1 
 7.950000E+01  5.000000E-01  5.000000E-01  2.019038E+05  9.972056E+02  4.236213E+00  5.554326E-04  4.975480E-04  2.490255E-04  2.564477E-03  5.034534E-07  0.000000E+00  0.000000E+00    1 
 8.050000E+01  5.000000E-01  5.000000E-01  2.018756E+05  9.972056E+02  4.971951E+00  5.190201E-04  5.311167E-04  2.657930E-04  2.399826E-03  4.698847E-07  0.000000E+00  0.000000E+00    1 
 8.150000E+01  5.000000E-01  5.000000E-01  2.018474E+05  9.972056E+02  5.551703E+00  4.830601E-04  5.642683E-04  2.823522E-04  2.237221E-03  4.367330E-07  0.000000E+00  0.000000E+00    1 
 8.250000E+01  5.000000E-01  5.000000E-01  2.018191E+05  9.972056E+02  5.837775E+00  4.477909E-04  5.967829E-04  2.985933E-04  2.077740E-03  4.042182E-07  0.000000E+00  0.000000E+00    1 
 8.350000E+01  5.000000E-01  5.000000E-01  2.017909E+05  9.972056E+02  6.030093E+00  4.134331E-04  6.284575E-04  3.144147E-04  1.922379E-03  3.725436E-07  0.000000E+00  0.000000E+00    1 
 8.450000E+01  5.000000E-01  5.000000E-01  2.017626E+05  9.972056E+02  6.179286E+00  3.801850E-04  6.591089E-04  3.297251E-04  1.772037E-03  3.418920E-07  0.000000E+00  0.000000E+00    1 
 8.550000E+01  5.000000E-01  5.000000E-01  2.017344E+05  9.972055E+02  6.304061E+00  3.482205E-04  6.885770E-04  3.444444E-04  1.627499E-03  3.124239E-07  0.000000E+00  0.000000E+00    1 
 8.650000E+01  5.000000E-01  5.000000E-01  2.017062E+05  9.972055E+02  6.413315E+00  3.176870E-04  7.167259E-04  3.585047E-04  1.489431E-03  2.842748E-07  0.000000E+00  0.000000E+00    1 
 8.750000E+01  5.000000E-01  5.000000E-01  2.016779E+05  9.972055E+02  6.511965E+00  2.887039E-04  7.434454E-04  3.718511E-04  1.358375E-03  2.575552E-07  0.000000E+00  0.000000E+00    1 
 8.850000E+01  5.000000E-01  5.000000E-01  2.016497E+05  9.972055E+02  6.603008E+00  2.613628E-04  7.686512E-04  3.844414E-04  1.234743E-03  2.323494E-07  0.000000E+00  0.000000E+00    1 
 8.950000E+01  5.000000E-01  5.000000E-01  2.016215E+05  9.972055E+02  6.688396E+00  2.357277E-04  7.922842E-04  3.962461E-04  1.118825E-03  2.087163E-07  0.000000E+00  0.000000E+00    1 
 9.050000E+01  5.000000E-01  5.000000E-01  2.015932E+05  9.972055E+02  6.769463E+00  2.118358E-04  8.143102E-04  4.072480E-04  1.010790E-03  1.866903E-07  0.000000E+00  0.000000E+00    1 
 9.150000E+01  5.000000E-01  5.000000E-01  2.015650E+05  9.972055E+02  6.847146E+00  1.896997E-04  8.347175E-04  4.174415E-04  9.106942E-04  1.662828E-07  0.000000E+00  0.000000E+00    1 
 9.250000E+01  5.000000E-01  5.000000E-01  2.015368E+05  9.972055E+02  6.922116E+00  1.693089E-04  8.535158E-04  4.268312E-04  8.184905E-04  1.474845E-07  0.000000E+00  0.000000E+00    1 
 9.350000E+01  5.000000E-01  5.000000E-01  2.015085E+05  9.972054E+02  6.994849E+00  1.506328E-04  8.707333E-04  4.354314E-04  7.340403E-04  1.302669E-07  0.000000E+00  0.000000E+00    1 
 9.450000E+01  5.000000E-01  5.000000E-01  2.014803E+05  9.972054E+02  7.065678E+00  1.336229E-04  8.864147E-04  4.432642E-04  6.571246E-04  1.145855E-07  0.000000E+00  0.000000E+00    1 
 9.550000E+01  5.000000E-01  5.000000E-01  2.014521E+05  9.972054E+02  7.134813E+00  1.182160E-04  9.006183E-04  4.503589E-04  5.874573E-04  1.003819E-07  0.000000E+00  0.000000E+00    1 
 9.650000E+01  5.000000E-01  5.000000E-01  2.014238E+05  9.972054E+02  7.202360E+00  1.043367E-04  9.134137E-04  4.567502E-04  5.246974E-04  8.758648E-08  0.000000E+00  0.000000E+00    1 
 9.750000E+01  5.000000E-01  5.000000E-01  2.013956E+05  9.972054E+02  7.268328E+00  9.190024E-05  9.248789E-04  4.624770E-04  4.684617E-04  7.612125E-08  0.000000E+00  0.000000E+00    1 
 9.850000E+01  5.000000E-01  5.000000E-01  2.013674E+05  9.972054E+02  7.332636E+00  8.081552E-05  9.350979E-04  4.675814E-04  4.183384E-04  6.590222E-08  0.000000E+00  0.000000E+00    1 
 9.950000E+01  5.000000E-01  5.000000E-01  2.013391E+05  9.972054E+02  7.394722E+00  7.104555E-05  9.441048E-04  4.720804E-04  3.741602E-04  5.689525E-08  0.000000E+00  0.000000E+00    1 
