TITLE = "  1.00000E+01 [y]"
VARIABLES="X [m]","Y [m]","Z [m]","Liquid Pressure [Pa]","Liquid Density [kg/m^3]","pH","Total H+ [M]","Total HCO3- [M]","Total Ca++ [M]","Total SO4-- [M]","Total UO2++ [M]","Calcite VF [m^3 mnrl/m^3 bulk]","Calcite Rate [mol/m^3/sec]","Material ID"
ZONE T="1.00000E+01", STRANDID=1, SOLUTIONTIME=1.00000E+01, I=100, J=1, K=1, DATAPACKING=POINT
 5.000000E-01  5.000000E-01  5.000000E-01  2.041344E+05  9.972066E+02  3.000039E+00  1.094047E-03  9.999154E-07  9.999869E-07  5.000000E-03  1.000000E-06  0.000000E+00  0.000000E+00    1 
 1.500000E+00  5.000000E-01  5.000000E-01  2.041062E+05  9.972066E+02  3.000039E+00  1.094047E-03  9.999154E-07  9.999869E-07  5.000000E-03  1.000000E-06  0.000000E+00  0.000000E+00    1 
 2.500000E+00  5.000000E-01  5.000000E-01  2.040779E+05  9.972066E+02  3.000039E+00  1.094047E-03  9.999154E-07  9.999868E-07  5.000000E-03  1.000000E-06  0.000000E+00  0.000000E+00    1 
 3.500000E+00  5.000000E-01  5.000000E-01  2.040497E+05  9.972066E+02  3.000039E+00  1.094047E-03  9.999155E-07  9.999869E-07  5.000000E-03  1.000000E-06  0.000000E+00  0.000000E+00    1 
 4.500000E+00  5.000000E-01  5.000000E-01  2.040215E+05  9.972066E+02  3.000039E+00  1.094047E-03  9.999161E-07  9.999872E-07  5.000000E-03  9.999999E-07  0.000000E+00  0.000000E+00    1 
 5.500000E+00  5.000000E-01  5.000000E-01  2.039932E+05  9.972066E+02  3.000039E+00  1.094047E-03  9.999191E-07  9.999887E-07  5.000000E-03  9.999999E-07  0.000000E+00  0.000000E+00    1 
 6.500000E+00  5.000000E-01  5.000000E-01  2.039650E+05  9.972065E+02  3.000039E+00  1.094047E-03  9.999317E-07  9.999950E-07  4.999999E-03  9.999999E-07  0.000000E+00  0.000000E+00    1 
 7.500000E+00  5.000000E-01  5.000000E-01  2.039368E+05  9.972065E+02  3.000039E+00  1.094046E-03  9.999789E-07  1.000019E-06  4.999999E-03  9.999998E-07  0.000000E+00  0.000000E+00    1 
 8.500000E+00  5.000000E-01  5.000000E-01  2.039085E+05  9.972065E+02  3.000039E+00  1.094046E-03  1.000136E-06  1.000097E-06  4.999998E-03  9.999997E-07  0.000000E+00  0.000000E+00    1 
 9.500000E+00  5.000000E-01  5.000000E-01  2.038803E+05  9.972065E+02  3.000039E+00  1.094046E-03  1.000615E-06  1.000336E-06  4.999996E-03  9.999992E-07  0.000000E+00  0.000000E+00    1 
 1.050000E+01  5.000000E-01  5.000000E-01  2.038521E+05  9.972065E+02  3.000040E+00  1.094044E-03  1.001947E-06  1.001001E-06  4.999989E-03  9.999978E-07  0.000000E+00  0.000000E+00    1 
 1.150000E+01  5.000000E-01  5.000000E-01  2.038238E+05  9.972065E+02  3.000043E+00  1.094041E-03  1.005376E-06  1.002714E-06  4.999972E-03  9.999944E-07  0.000000E+00  0.000000E+00    1 
 1.250000E+01  5.000000E-01  5.000000E-01  2.037956E+05  9.972065E+02  3.000050E+00  1.094032E-03  1.013603E-06  1.006824E-06  4.999932E-03  9.999862E-07  0.000000E+00  0.000000E+00    1 
 1.350000E+01  5.000000E-01  5.000000E-01  2.037673E+05  9.972065E+02  3.000065E+00  1.094012E-03  1.032103E-06  1.016064E-06  4.999841E-03  9.999676E-07  0.000000E+00  0.000000E+00    1 
 1.450000E+01  5.000000E-01  5.000000E-01  2.037391E+05  9.972064E+02  3.000096E+00  1.093969E-03  1.071298E-06  1.035642E-06  4.999649E-03  9.999284E-07  0.000000E+00  0.000000E+00    1 
 1.550000E+01  5.000000E-01  5.000000E-01  2.037109E+05  9.972064E+02  3.000159E+00  1.093884E-03  1.149891E-06  1.074900E-06  4.999263E-03  9.998498E-07  0.000000E+00  0.000000E+00    1 
 1.650000E+01  5.000000E-01  5.000000E-01  2.036826E+05  9.972064E+02  3.000280E+00  1.093721E-03  1.299640E-06  1.149699E-06  4.998529E-03  9.997001E-07  0.000000E+00  0.000000E+00    1 
 1.750000E+01  5.000000E-01  5.000000E-01  2.036544E+05  9.972064E+02  3.000500E+00  1.093426E-03  1.571714E-06  1.285600E-06  4.997194E-03  9.994280E-07  0.000000E+00  0.000000E+00    1 
 1.850000E+01  5.000000E-01  5.000000E-01  2.036262E+05  9.972064E+02  3.000882E+00  1.092913E-03  2.044551E-06  1.521782E-06  4.994875E-03  9.989551E-07  0.000000E+00  0.000000E+00    1 
 1.950000E+01  5.000000E-01  5.000000E-01  2.035979E+05  9.972064E+02  3.001521E+00  1.092058E-03  2.832778E-06  1.915501E-06  4.991009E-03  9.981669E-07  0.000000E+00  0.000000E+00    1 
 2.050000E+01  5.000000E-01  5.000000E-01  2.035697E+05  9.972064E+02  3.002546E+00  1.090688E-03  4.096337E-06  2.546648E-06  4.984811E-03  9.969033E-07  0.000000E+00  0.000000E+00    1 
 2.150000E+01  5.000000E-01  5.000000E-01  2.035415E+05  9.972064E+02  3.004137E+00  1.088570E-03  6.048568E-06  3.521786E-06  4.975235E-03  9.949511E-07  0.000000E+00  0.000000E+00    1 
 2.250000E+01  5.000000E-01  5.000000E-01  2.035132E+05  9.972063E+02  3.006522E+00  1.085410E-03  8.961656E-06  4.976872E-06  4.960947E-03  9.920380E-07  0.000000E+00  0.000000E+00    1 
 2.350000E+01  5.000000E-01  5.000000E-01  2.034850E+05  9.972063E+02  3.009992E+00  1.080848E-03  1.316775E-05  7.077812E-06  4.940317E-03  9.878319E-07  0.000000E+00  0.000000E+00    1 
 2.450000E+01  5.000000E-01  5.000000E-01  2.034568E+05  9.972063E+02  3.014899E+00  1.074463E-03  1.905419E-05  1.001809E-05  4.911444E-03  9.819455E-07  0.000000E+00  0.000000E+00    1 
 2.550000E+01  5.000000E-01  5.000000E-01  2.034285E+05  9.972063E+02  3.021661E+00  1.065787E-03  2.705184E-05  1.401291E-05  4.872216E-03  9.739479E-07  0.000000E+00  0.000000E+00    1 
 2.650000E+01  5.000000E-01  5.000000E-01  2.034003E+05  9.972063E+02  3.030768E+00  1.054328E-03  3.761604E-05  1.928972E-05  4.820400E-03  9.633837E-07  0.000000E+00  0.000000E+00    1 
 2.750000E+01  5.000000E-01  5.000000E-01  2.033721E+05  9.972063E+02  3.042780E+00  1.039592E-03  5.120104E-05  2.607542E-05  4.753767E-03  9.497987E-07  0.000000E+00  0.000000E+00    1 
 2.850000E+01  5.000000E-01  5.000000E-01  2.033438E+05  9.972063E+02  3.058343E+00  1.021122E-03  6.822930E-05  3.458103E-05  4.670245E-03  9.327705E-07  0.000000E+00  0.000000E+00    1 
 2.950000E+01  5.000000E-01  5.000000E-01  2.033156E+05  9.972063E+02  3.078204E+00  9.985280E-04  8.905832E-05  4.498511E-05  4.568081E-03  9.119416E-07  0.000000E+00  0.000000E+00    1 
 3.050000E+01  5.000000E-01  5.000000E-01  2.032874E+05  9.972062E+02  3.103241E+00  9.715296E-04  1.139481E-04  5.741757E-05  4.445999E-03  8.870519E-07  0.000000E+00  0.000000E+00    1 
 3.150000E+01  5.000000E-01  5.000000E-01  2.032591E+05  9.972062E+02  3.134523E+00  9.399811E-04  1.430328E-04  7.194532E-05  4.303341E-03  8.579674E-07  0.000000E+00  0.000000E+00    1 
 3.250000E+01  5.000000E-01  5.000000E-01  2.032309E+05  9.972062E+02  3.173403E+00  9.038971E-04  1.762986E-04  8.856161E-05  4.140175E-03  8.247016E-07  0.000000E+00  0.000000E+00    1 
 3.350000E+01  5.000000E-01  5.000000E-01  2.032026E+05  9.972062E+02  3.221692E+00  8.634651E-04  2.135729E-04  1.071801E-04  3.957349E-03  7.874275E-07  0.000000E+00  0.000000E+00    1 
 3.450000E+01  5.000000E-01  5.000000E-01  2.031744E+05  9.972062E+02  3.281975E+00  8.190465E-04  2.545225E-04  1.276344E-04  3.756495E-03  7.464781E-07  0.000000E+00  0.000000E+00    1 
 3.550000E+01  5.000000E-01  5.000000E-01  2.031462E+05  9.972062E+02  3.358237E+00  7.711648E-04  2.986647E-04  1.496834E-04  3.539982E-03  7.023360E-07  0.000000E+00  0.000000E+00    1 
 3.650000E+01  5.000000E-01  5.000000E-01  2.031179E+05  9.972062E+02  3.457269E+00  7.204827E-04  3.453886E-04  1.730220E-04  3.310806E-03  6.556123E-07  0.000000E+00  0.000000E+00    1 
 3.750000E+01  5.000000E-01  5.000000E-01  2.030897E+05  9.972062E+02  3.592315E+00  6.677699E-04  3.939846E-04  1.972956E-04  3.072448E-03  6.070164E-07  0.000000E+00  0.000000E+00    1 
 3.850000E+01  5.000000E-01  5.000000E-01  2.030615E+05  9.972061E+02  3.795448E+00  6.138644E-04  4.436801E-04  2.221185E-04  2.828696E-03  5.573209E-07  0.000000E+00  0.000000E+00    1 
 3.950000E+01  5.000000E-01  5.000000E-01  2.030332E+05  9.972061E+02  4.185904E+00  5.596304E-04  4.936785E-04  2.470927E-04  2.583459E-03  5.073227E-07  0.000000E+00  0.000000E+00    1 
 4.050000E+01  5.000000E-01  5.000000E-01  2.030050E+05  9.972061E+02  5.244748E+00  5.059174E-04  5.431966E-04  2.718270E-04  2.340578E-03  4.578045E-07  0.000000E+00  0.000000E+00    1 
 4.150000E+01  5.000000E-01  5.000000E-01  2.029768E+05  9.972061E+02  5.799932E+00  4.535215E-04  5.915004E-04  2.959547E-04  2.103652E-03  4.095007E-07  0.000000E+00  0.000000E+00    1 
 4.250000E+01  5.000000E-01  5.000000E-01  2.029485E+05  9.972061E+02  6.079440E+00  4.031544E-04  6.379339E-04  3.191482E-04  1.875901E-03  3.630671E-07  0.000000E+00  0.000000E+00    1 
 4.350000E+01  5.000000E-01  5.000000E-01  2.029203E+05  9.972061E+02  6.277473E+00  3.554187E-04  6.819415E-04  3.411300E-04  1.660048E-03  3.190595E-07  0.000000E+00  0.000000E+00    1 
 4.450000E+01  5.000000E-01  5.000000E-01  2.028921E+05  9.972061E+02  6.437480E+00  3.107926E-04  7.230823E-04  3.616798E-04  1.458256E-03  2.779186E-07  0.000000E+00  0.000000E+00    1 
 4.550000E+01  5.000000E-01  5.000000E-01  2.028638E+05  9.972061E+02  6.575936E+00  2.696230E-04  7.610366E-04  3.806379E-04  1.272094E-03  2.399643E-07  0.000000E+00  0.000000E+00    1 
 4.650000E+01  5.000000E-01  5.000000E-01  2.028356E+05  9.972060E+02  6.700820E+00  2.321265E-04  7.956047E-04  3.979047E-04  1.102541E-03  2.053961E-07  0.000000E+00  0.000000E+00    1 
 4.750000E+01  5.000000E-01  5.000000E-01  2.028074E+05  9.972060E+02  6.816552E+00  1.983972E-04  8.266998E-04  4.134366E-04  9.500232E-04  1.743010E-07  0.000000E+00  0.000000E+00    1 
 4.850000E+01  5.000000E-01  5.000000E-01  2.027791E+05  9.972060E+02  6.925762E+00  1.684199E-04  8.543359E-04  4.272408E-04  8.144710E-04  1.466649E-07  0.000000E+00  0.000000E+00    1 
 4.950000E+01  5.000000E-01  5.000000E-01  2.027509E+05  9.972060E+02  7.030061E+00  1.420866E-04  8.786126E-04  4.393671E-04  6.953960E-04  1.223882E-07  0.000000E+00  0.000000E+00    1 
 5.050000E+01  5.000000E-01  5.000000E-01  2.027226E+05  9.972060E+02  7.130388E+00  1.192148E-04  8.996982E-04  4.498993E-04  5.919734E-04  1.013025E-07  0.000000E+00  0.000000E+00    1 
 5.150000E+01  5.000000E-01  5.000000E-01  2.026944E+05  9.972060E+02  7.227181E+00  9.956651E-05  9.178119E-04  4.589471E-04  5.031273E-04  8.318878E-08  0.000000E+00  0.000000E+00    1 
 5.250000E+01  5.000000E-01  5.000000E-01  2.026662E+05  9.972060E+02  7.320457E+00  8.286660E-05  9.332076E-04  4.666372E-04  4.276131E-04  6.779309E-08  0.000000E+00  0.000000E+00    1 
 5.350000E+01  5.000000E-01  5.000000E-01  2.026379E+05  9.972060E+02  7.409853E+00  6.881887E-05  9.461582E-04  4.731060E-04  3.640916E-04  5.484246E-08  0.000000E+00  0.000000E+00    1 
 5.450000E+01  5.000000E-01  5.000000E-01  2.026097E+05  9.972059E+02  7.494670E+00  5.712045E-05  9.569430E-04  4.784930E-04  3.111933E-04  4.405766E-08  0.000000E+00  0.000000E+00    1 
 5.550000E+01  5.000000E-01  5.000000E-01  2.025815E+05  9.972059E+02  7.573952E+00  4.747324E-05  9.658367E-04  4.829355E-04  2.675702E-04  3.516387E-08  0.000000E+00  0.000000E+00    1 
 5.650000E+01  5.000000E-01  5.000000E-01  2.025532E+05  9.972059E+02  7.646634E+00  3.959284E-05  9.731017E-04  4.865643E-04  2.319364E-04  2.789892E-08  0.000000E+00  0.000000E+00    1 
 5.750000E+01  5.000000E-01  5.000000E-01  2.025250E+05  9.972059E+02  7.711742E+00  3.321493E-05  9.789815E-04  4.895012E-04  2.030965E-04  2.201910E-08  0.000000E+00  0.000000E+00    1 
 5.850000E+01  5.000000E-01  5.000000E-01  2.024968E+05  9.972059E+02  7.768612E+00  2.809924E-05  9.836976E-04  4.918570E-04  1.799643E-04  1.730294E-08  0.000000E+00  0.000000E+00    1 
 5.950000E+01  5.000000E-01  5.000000E-01  2.024685E+05  9.972059E+02  7.817036E+00  2.403174E-05  9.874474E-04  4.937300E-04  1.615717E-04  1.355310E-08  0.000000E+00  0.000000E+00    1 
 6.050000E+01  5.000000E-01  5.000000E-01  2.024403E+05  9.972059E+02  7.857290E+00  2.082508E-05  9.904036E-04  4.952066E-04  1.470717E-04  1.059687E-08  0.000000E+00  0.000000E+00    1 
 6.150000E+01  5.000000E-01  5.000000E-01  2.024121E+05  9.972059E+02  7.890036E+00  1.831796E-05  9.927149E-04  4.963611E-04  1.357349E-04  8.285554E-09  0.000000E+00  0.000000E+00    1 
 6.250000E+01  5.000000E-01  5.000000E-01  2.023838E+05  9.972058E+02  7.916183E+00  1.637354E-05  9.945075E-04  4.972565E-04  1.269426E-04  6.492993E-09  0.000000E+00  0.000000E+00    1 
 6.350000E+01  5.000000E-01  5.000000E-01  2.023556E+05  9.972058E+02  7.936730E+00  1.487736E-05  9.958868E-04  4.979455E-04  1.201771E-04  5.113659E-09  0.000000E+00  0.000000E+00    1 
 6.450000E+01  5.000000E-01  5.000000E-01  2.023274E+05  9.972058E+02  7.952657E+00  1.373488E-05  9.969401E-04  4.984716E-04  1.150110E-04  4.060403E-09  0.000000E+00  0.000000E+00    1 
 6.550000E+01  5.000000E-01  5.000000E-01  2.022991E+05  9.972058E+02  7.964859E+00  1.286898E-05  9.977383E-04  4.988703E-04  1.110955E-04  3.262129E-09  0.000000E+00  0.000000E+00    1 
 6.650000E+01  5.000000E-01  5.000000E-01  2.022709E+05  9.972058E+02  7.974111E+00  1.221747E-05  9.983389E-04  4.991703E-04  1.081495E-04  2.661504E-09  0.000000E+00  0.000000E+00    1 
 6.750000E+01  5.000000E-01  5.000000E-01  2.022426E+05  9.972058E+02  7.981061E+00  1.173075E-05  9.987876E-04  4.993944E-04  1.059487E-04  2.212791E-09  0.000000E+00  0.000000E+00    1 
 6.850000E+01  5.000000E-01  5.000000E-01  2.022144E+05  9.972058E+02  7.986238E+00  1.136964E-05  9.991205E-04  4.995607E-04  1.043158E-04  1.879886E-09  0.000000E+00  0.000000E+00    1 
 6.950000E+01  5.000000E-01  5.000000E-01  2.021862E+05  9.972058E+02  7.990064E+00  1.110354E-05  9.993658E-04  4.996832E-04  1.031125E-04  1.634564E-09  0.000000E+00  0.000000E+00    1 
 7.050000E+01  5.000000E-01  5.000000E-01  2.021579E+05  9.972057E+02  7.992870E+00  1.090873E-05  9.995454E-04  4.997729E-04  1.022316E-04  1.454974E-09  0.000000E+00  0.000000E+00    1 
 7.150000E+01  5.000000E-01  5.000000E-01  2.021297E+05  9.972057E+02  7.994914E+00  1.076704E-05  9.996760E-04  4.998382E-04  1.015909E-04  1.324348E-09  0.000000E+00  0.000000E+00    1 
 7.250000E+01  5.000000E-01  5.000000E-01  2.021015E+05  9.972057E+02  7.996393E+00  1.066462E-05  9.997704E-04  4.998853E-04  1.011278E-04  1.229932E-09  0.000000E+00  0.000000E+00    1 
 7.350000E+01  5.000000E-01  5.000000E-01  2.020732E+05  9.972057E+02  7.997456E+00  1.059105E-05  9.998382E-04  4.999192E-04  1.007951E-04  1.162107E-09  0.000000E+00  0.000000E+00    1 
 7.450000E+01  5.000000E-01  5.000000E-01  2.020450E+05  9.972057E+02  7.998216E+00  1.053852E-05  9.998867E-04  4.999434E-04  1.005576E-04  1.113675E-09  0.000000E+00  0.000000E+00    1 
 7.550000E+01  5.000000E-01  5.000000E-01  2.020168E+05  9.972057E+02  7.998755E+00  1.050122E-05  9.999210E-04  4.999605E-04  1.003890E-04  1.079294E-09  0.000000E+00  0.000000E+00    1 
 7.650000E+01  5.000000E-01  5.000000E-01  2.019885E+05  9.972057E+02  7.999136E+00  1.047490E-05  9.999453E-04  4.999727E-04  1.002699E-04  1.055026E-09  0.000000E+00  0.000000E+00    1 
 7.750000E+01  5.000000E-01  5.000000E-01  2.019603E+05  9.972056E+02  7.999404E+00  1.045642E-05  9.999623E-04  4.999812E-04  1.001864E-04  1.037993E-09  0.000000E+00  0.000000E+00    1 
 7.850000E+01  5.000000E-01  5.000000E-01  2.019321E+05  9.972056E+02  7.999590E+00  1.044353E-05  9.999742E-04  4.999871E-04  1.001281E-04  1.026102E-09  0.000000E+00  0.000000E+00    1 
 7.950000E+01  5.000000E-01  5.000000E-01  2.019038E+05  9.972056E+02  7.999720E+00  1.043457E-05  9.999824E-04  4.999912E-04  1.000876E-04  1.017846E-09  0.000000E+00  0.000000E+00    1 
 8.050000E+01  5.000000E-01  5.000000E-01  2.018756E+05  9.972056E+02  7.999809E+00  1.042839E-05  9.999881E-04  4.999941E-04  1.000596E-04  1.012143E-09  0.000000E+00  0.000000E+00    1 
 8.150000E+01  5.000000E-01  5.000000E-01  2.018474E+05  9.972056E+02  7.999871E+00  1.042413E-05  9.999920E-04  4.999960E-04  1.000404E-04  1.008224E-09  0.000000E+00  0.000000E+00    1 
 8.250000E+01  5.000000E-01  5.000000E-01  2.018191E+05  9.972056E+02  7.999913E+00  1.042123E-05  9.999947E-04  4.999973E-04  1.000272E-04  1.005545E-09  0.000000E+00  0.000000E+00    1 
 8.350000E+01  5.000000E-01  5.000000E-01  2.017909E+05  9.972056E+02  7.999942E+00  1.041925E-05  9.999965E-04  4.999982E-04  1.000183E-04  1.003722E-09  0.000000E+00  0.000000E+00    1 
 8.450000E+01  5.000000E-01  5.000000E-01  2.017626E+05  9.972056E+02  7.999961E+00  1.041791E-05  9.999977E-04  4.999989E-04  1.000122E-04  1.002487E-09  0.000000E+00  0.000000E+00    1 
 8.550000E+01  5.000000E-01  5.000000E-01  2.017344E+05  9.972055E+02  7.999974E+00  1.041701E-05  9.999985E-04  4.999993E-04  1.000081E-04  1.001655E-09  0.000000E+00  0.000000E+00    1 
 8.650000E+01  5.000000E-01  5.000000E-01  2.017062E+05  9.972055E+02  7.999983E+00  1.041640E-05  9.999991E-04  4.999995E-04  1.000054E-04  1.001096E-09  0.000000E+00  0.000000E+00    1 
 8.750000E+01  5.000000E-01  5.000000E-01  2.016779E+05  9.972055E+02  7.999989E+00  1.041600E-05  9.999994E-04  4.999997E-04  1.000036E-04  1.000724E-09  0.000000E+00  0.000000E+00    1 
 8.850000E+01  5.000000E-01  5.000000E-01  2.016497E+05  9.972055E+02  7.999993E+00  1.041573E-05  9.999997E-04  4.999998E-04  1.000023E-04  1.000476E-09  0.000000E+00  0.000000E+00    1 
 8.950000E+01  5.000000E-01  5.000000E-01  2.016215E+05  9.972055E+02  7.999995E+00  1.041555E-05  9.999998E-04  4.999999E-04  1.000015E-04  1.000311E-09  0.000000E+00  0.000000E+00    1 
 9.050000E+01  5.000000E-01  5.000000E-01  2.015932E+05  9.972055E+02  7.999997E+00  1.041543E-05  9.999999E-04  5.000000E-04  1.000010E-04  1.000203E-09  0.000000E+00  0.000000E+00    1 
 9.150000E+01  5.000000E-01  5.000000E-01  2.015650E+05  9.972055E+02  7.999998E+00  1.041536E-05  1.000000E-03  5.000000E-04  1.000007E-04  1.000132E-09  0.000000E+00  0.000000E+00    1 
 9.250000E+01  5.000000E-01  5.000000E-01  2.015368E+05  9.972055E+02  7.999999E+00  1.041530E-05  1.000000E-03  5.000000E-04  1.000004E-04  1.000085E-09  0.000000E+00  0.000000E+00    1 
 9.350000E+01  5.000000E-01  5.000000E-01  2.015085E+05  9.972054E+02  7.999999E+00  1.041527E-05  1.000000E-03  5.000000E-04  1.000003E-04  1.000055E-09  0.000000E+00  0.000000E+00    1 
 9.450000E+01  5.000000E-01  5.000000E-01  2.014803E+05  9.972054E+02  7.999999E+00  1.041525E-05  1.000000E-03  5.000000E-04  1.000002E-04  1.000035E-09  0.000000E+00  0.000000E+00    1 
 9.550000E+01  5.000000E-01  5.000000E-01  2.014521E+05  9.972054E+02  8.000000E+00  1.041524E-05  1.000000E-03  5.000000E-04  1.000001E-04  1.000023E-09  0.000000E+00  0.000000E+00    1 
 9.650000E+01  5.000000E-01  5.000000E-01  2.014238E+05  9.972054E+02  8.000000E+00  1.041523E-05  1.000000E-03  5.000000E-04  1.000001E-04  1.000015E-09  0.000000E+00  0.000000E+00    1 
 9.750000E+01  5.000000E-01  5.000000E-01  2.013956E+05  9.972054E+02  8.000000E+00  1.041522E-05  1.000000E-03  5.000000E-04  1.000000E-04  1.000009E-09  0.000000E+00  0.000000E+00    1 
 9.850000E+01  5.000000E-01  5.000000E-01  2.013674E+05  9.972054E+02  8.000000E+00  1.041522E-05  1.000000E-03  5.000000E-04  1.000000E-04  1.000006E-09  0.000000E+00  0.000000E+00    1 
 9.950000E+01  5.000000E-01  5.000000E-01  2.013391E+05  9.972054E+02  8.000000E+00  1.041522E-05  1.000000E-03  5.000000E-04  1.000000E-04  1.000004E-09  0.000000E+00  0.000000E+00    1 
