TITLE = "  1.50000E+01 [y]"
VARIABLES="X [m]","Y [m]","Z [m]","Liquid Pressure [Pa]","Liquid Density [kg/m^3]","pH","Total H+ [M]","Total HCO3- [M]","Total Ca++ [M]","Total SO4-- [M]","Total UO2++ [M]","Calcite VF [m^3 mnrl/m^3 bulk]","Calcite Rate [mol/m^3/sec]","Material ID"
ZONE T="1.50000E+01", STRANDID=1, SOLUTIONTIME=1.50000E+01, I=100, J=1, K=1, DATAPACKING=POINT
 5.000000E-01  5.000000E-01  5.000000E-01  2.041344E+05  9.972066E+02  3.000039E+00  1.094047E-03  9.999154E-07  9.999869E-07  5.000000E-03  1.000000E-06  0.000000E+00  0.000000E+00    1 
 1.500000E+00  5.000000E-01  5.000000E-01  2.041062E+05  9.972066E+02  3.000039E+00  1.094047E-03  9.999154E-07  9.999868E-07  5.000000E-03  1.000000E-06  0.000000E+00  0.000000E+00    1 
 2.500000E+00  5.000000E-01  5.000000E-01  2.040779E+05  9.972066E+02  3.000039E+00  1.094047E-03  9.999154E-07  9.999868E-07  5.000000E-03  1.000000E-06  0.000000E+00  0.000000E+00    1 
 3.500000E+00  5.000000E-01  5.000000E-01  2.040497E+05  9.972066E+02  3.000039E+00  1.094047E-03  9.999154E-07  9.999868E-07  5.000000E-03  1.000000E-06  0.000000E+00  0.000000E+00    1 
 4.500000E+00  5.000000E-01  5.000000E-01  2.040215E+05  9.972066E+02  3.000039E+00  1.094047E-03  9.999154E-07  9.999868E-07  5.000000E-03  9.999999E-07  0.000000E+00  0.000000E+00    1 
 5.500000E+00  5.000000E-01  5.000000E-01  2.039932E+05  9.972066E+02  3.000039E+00  1.094047E-03  9.999153E-07  9.999868E-07  5.000000E-03  9.999999E-07  0.000000E+00  0.000000E+00    1 
 6.500000E+00  5.000000E-01  5.000000E-01  2.039650E+05  9.972065E+02  3.000039E+00  1.094047E-03  9.999153E-07  9.999868E-07  5.000000E-03  9.999999E-07  0.000000E+00  0.000000E+00    1 
 7.500000E+00  5.000000E-01  5.000000E-01  2.039368E+05  9.972065E+02  3.000039E+00  1.094047E-03  9.999153E-07  9.999868E-07  5.000000E-03  9.999999E-07  0.000000E+00  0.000000E+00    1 
 8.500000E+00  5.000000E-01  5.000000E-01  2.039085E+05  9.972065E+02  3.000039E+00  1.094047E-03  9.999153E-07  9.999868E-07  4.999999E-03  9.999999E-07  0.000000E+00  0.000000E+00    1 
 9.500000E+00  5.000000E-01  5.000000E-01  2.038803E+05  9.972065E+02  3.000039E+00  1.094047E-03  9.999153E-07  9.999868E-07  4.999999E-03  9.999999E-07  0.000000E+00  0.000000E+00    1 
 1.050000E+01  5.000000E-01  5.000000E-01  2.038521E+05  9.972065E+02  3.000039E+00  1.094047E-03  9.999153E-07  9.999867E-07  4.999999E-03  9.999999E-07  0.000000E+00  0.000000E+00    1 
 1.150000E+01  5.000000E-01  5.000000E-01  2.038238E+05  9.972065E+02  3.000039E+00  1.094047E-03  9.999154E-07  9.999868E-07  4.999999E-03  9.999999E-07  0.000000E+00  0.000000E+00    1 
 1.250000E+01  5.000000E-01  5.000000E-01  2.037956E+05  9.972065E+02  3.000039E+00  1.094046E-03  9.999156E-07  9.999869E-07  4.999999E-03  9.999998E-07  0.000000E+00  0.000000E+00    1 
 1.350000E+01  5.000000E-01  5.000000E-01  2.037673E+05  9.972065E+02  3.000039E+00  1.094046E-03  9.999163E-07  9.999872E-07  4.999999E-03  9.999998E-07  0.000000E+00  0.000000E+00    1 
 1.450000E+01  5.000000E-01  5.000000E-01  2.037391E+05  9.972064E+02  3.000039E+00  1.094046E-03  9.999185E-07  9.999883E-07  4.999999E-03  9.999998E-07  0.000000E+00  0.000000E+00    1 
 1.550000E+01  5.000000E-01  5.000000E-01  2.037109E+05  9.972064E+02  3.000039E+00  1.094046E-03  9.999244E-07  9.999913E-07  4.999999E-03  9.999998E-07  0.000000E+00  0.000000E+00    1 
 1.650000E+01  5.000000E-01  5.000000E-01  2.036826E+05  9.972064E+02  3.000039E+00  1.094046E-03  9.999397E-07  9.999989E-07  4.999999E-03  9.999998E-07  0.000000E+00  0.000000E+00    1 
 1.750000E+01  5.000000E-01  5.000000E-01  2.036544E+05  9.972064E+02  3.000039E+00  1.094046E-03  9.999773E-07  1.000018E-06  4.999999E-03  9.999997E-07  0.000000E+00  0.000000E+00    1 
 1.850000E+01  5.000000E-01  5.000000E-01  2.036262E+05  9.972064E+02  3.000039E+00  1.094046E-03  1.000066E-06  1.000062E-06  4.999998E-03  9.999996E-07  0.000000E+00  0.000000E+00    1 
 1.950000E+01  5.000000E-01  5.000000E-01  2.035979E+05  9.972064E+02  3.000039E+00  1.094046E-03  1.000266E-06  1.000162E-06  4.999997E-03  9.999994E-07  0.000000E+00  0.000000E+00    1 
 2.050000E+01  5.000000E-01  5.000000E-01  2.035697E+05  9.972064E+02  3.000039E+00  1.094046E-03  1.000700E-06  1.000379E-06  4.999995E-03  9.999990E-07  0.000000E+00  0.000000E+00    1 
 2.150000E+01  5.000000E-01  5.000000E-01  2.035415E+05  9.972064E+02  3.000040E+00  1.094045E-03  1.001605E-06  1.000831E-06  4.999990E-03  9.999980E-07  0.000000E+00  0.000000E+00    1 
 2.250000E+01  5.000000E-01  5.000000E-01  2.035132E+05  9.972063E+02  3.000041E+00  1.094043E-03  1.003425E-06  1.001740E-06  4.999981E-03  9.999962E-07  0.000000E+00  0.000000E+00    1 
 2.350000E+01  5.000000E-01  5.000000E-01  2.034850E+05  9.972063E+02  3.000044E+00  1.094039E-03  1.006958E-06  1.003504E-06  4.999964E-03  9.999927E-07  0.000000E+00  0.000000E+00    1 
 2.450000E+01  5.000000E-01  5.000000E-01  2.034568E+05  9.972063E+02  3.000050E+00  1.094031E-03  1.013595E-06  1.006820E-06  4.999931E-03  9.999860E-07  0.000000E+00  0.000000E+00    1 
 2.550000E+01  5.000000E-01  5.000000E-01  2.034285E+05  9.972063E+02  3.000059E+00  1.094018E-03  1.025680E-06  1.012856E-06  4.999872E-03  9.999739E-07  0.000000E+00  0.000000E+00    1 
 2.650000E+01  5.000000E-01  5.000000E-01  2.034003E+05  9.972063E+02  3.000077E+00  1.093995E-03  1.047032E-06  1.023521E-06  4.999767E-03  9.999525E-07  0.000000E+00  0.000000E+00    1 
 2.750000E+01  5.000000E-01  5.000000E-01  2.033721E+05  9.972063E+02  3.000106E+00  1.093955E-03  1.083688E-06  1.041831E-06  4.999587E-03  9.999159E-07  0.000000E+00  0.000000E+00    1 
 2.850000E+01  5.000000E-01  5.000000E-01  2.033438E+05  9.972063E+02  3.000156E+00  1.093889E-03  1.144915E-06  1.072414E-06  4.999287E-03  9.998546E-07  0.000000E+00  0.000000E+00    1 
 2.950000E+01  5.000000E-01  5.000000E-01  2.033156E+05  9.972063E+02  3.000236E+00  1.093781E-03  1.244523E-06  1.122168E-06  4.998798E-03  9.997550E-07  0.000000E+00  0.000000E+00    1 
 3.050000E+01  5.000000E-01  5.000000E-01  2.032874E+05  9.972062E+02  3.000364E+00  1.093610E-03  1.402530E-06  1.201092E-06  4.998023E-03  9.995970E-07  0.000000E+00  0.000000E+00    1 
 3.150000E+01  5.000000E-01  5.000000E-01  2.032591E+05  9.972062E+02  3.000562E+00  1.093344E-03  1.647167E-06  1.323288E-06  4.996823E-03  9.993524E-07  0.000000E+00  0.000000E+00    1 
 3.250000E+01  5.000000E-01  5.000000E-01  2.032309E+05  9.972062E+02  3.000862E+00  1.092943E-03  2.017196E-06  1.508118E-06  4.995008E-03  9.989823E-07  0.000000E+00  0.000000E+00    1 
 3.350000E+01  5.000000E-01  5.000000E-01  2.032026E+05  9.972062E+02  3.001305E+00  1.092349E-03  2.564463E-06  1.781477E-06  4.992324E-03  9.984350E-07  0.000000E+00  0.000000E+00    1 
 3.450000E+01  5.000000E-01  5.000000E-01  2.031744E+05  9.972062E+02  3.001948E+00  1.091490E-03  3.356547E-06  2.177123E-06  4.988439E-03  9.976429E-07  0.000000E+00  0.000000E+00    1 
 3.550000E+01  5.000000E-01  5.000000E-01  2.031462E+05  9.972062E+02  3.002862E+00  1.090272E-03  4.479315E-06  2.737945E-06  4.982932E-03  9.965202E-07  0.000000E+00  0.000000E+00    1 
 3.650000E+01  5.000000E-01  5.000000E-01  2.031179E+05  9.972062E+02  3.004135E+00  1.088580E-03  6.039134E-06  3.517073E-06  4.975281E-03  9.949603E-07  0.000000E+00  0.000000E+00    1 
 3.750000E+01  5.000000E-01  5.000000E-01  2.030897E+05  9.972062E+02  3.005876E+00  1.086275E-03  8.164455E-06  4.578670E-06  4.964856E-03  9.928350E-07  0.000000E+00  0.000000E+00    1 
 3.850000E+01  5.000000E-01  5.000000E-01  2.030615E+05  9.972061E+02  3.008216E+00  1.083192E-03  1.100647E-05  5.998254E-06  4.950916E-03  9.899930E-07  0.000000E+00  0.000000E+00    1 
 3.950000E+01  5.000000E-01  5.000000E-01  2.030332E+05  9.972061E+02  3.011310E+00  1.079144E-03  1.473852E-05  7.862414E-06  4.932611E-03  9.862609E-07  0.000000E+00  0.000000E+00    1 
 4.050000E+01  5.000000E-01  5.000000E-01  2.030050E+05  9.972061E+02  3.015336E+00  1.073920E-03  1.955409E-05  1.026779E-05  4.908991E-03  9.814454E-07  0.000000E+00  0.000000E+00    1 
 4.150000E+01  5.000000E-01  5.000000E-01  2.029768E+05  9.972061E+02  3.020502E+00  1.067294E-03  2.566302E-05  1.331920E-05  4.879027E-03  9.753365E-07  0.000000E+00  0.000000E+00    1 
 4.250000E+01  5.000000E-01  5.000000E-01  2.029485E+05  9.972061E+02  3.027040E+00  1.059025E-03  3.328616E-05  1.712695E-05  4.841637E-03  9.677133E-07  0.000000E+00  0.000000E+00    1 
 4.350000E+01  5.000000E-01  5.000000E-01  2.029203E+05  9.972061E+02  3.035212E+00  1.048870E-03  4.264824E-05  2.180330E-05  4.795716E-03  9.583513E-07  0.000000E+00  0.000000E+00    1 
 4.450000E+01  5.000000E-01  5.000000E-01  2.028921E+05  9.972061E+02  3.045314E+00  1.036589E-03  5.396937E-05  2.745820E-05  4.740187E-03  9.470302E-07  0.000000E+00  0.000000E+00    1 
 4.550000E+01  5.000000E-01  5.000000E-01  2.028638E+05  9.972061E+02  3.057676E+00  1.021961E-03  6.745544E-05  3.419449E-05  4.674040E-03  9.335442E-07  0.000000E+00  0.000000E+00    1 
 4.650000E+01  5.000000E-01  5.000000E-01  2.028356E+05  9.972060E+02  3.072669E+00  1.004787E-03  8.328795E-05  4.210282E-05  4.596383E-03  9.177117E-07  0.000000E+00  0.000000E+00    1 
 4.750000E+01  5.000000E-01  5.000000E-01  2.028074E+05  9.972060E+02  3.090721E+00  9.849086E-04  1.016138E-04  5.125658E-05  4.506496E-03  8.993859E-07  0.000000E+00  0.000000E+00    1 
 4.850000E+01  5.000000E-01  5.000000E-01  2.027791E+05  9.972060E+02  3.112324E+00  9.622142E-04  1.225359E-04  6.170713E-05  4.403875E-03  8.784639E-07  0.000000E+00  0.000000E+00    1 
 4.950000E+01  5.000000E-01  5.000000E-01  2.027509E+05  9.972060E+02  3.138065E+00  9.366489E-04  1.461045E-04  7.347963E-05  4.288274E-03  8.548954E-07  0.000000E+00  0.000000E+00    1 
 5.050000E+01  5.000000E-01  5.000000E-01  2.027226E+05  9.972060E+02  3.168661E+00  9.082221E-04  1.723112E-04  8.656988E-05  4.159732E-03  8.286888E-07  0.000000E+00  0.000000E+00    1 
 5.150000E+01  5.000000E-01  5.000000E-01  2.026944E+05  9.972060E+02  3.205019E+00  8.770109E-04  2.010848E-04  1.009423E-04  4.018601E-03  7.999152E-07  0.000000E+00  0.000000E+00    1 
 5.250000E+01  5.000000E-01  5.000000E-01  2.026662E+05  9.972060E+02  3.248329E+00  8.431623E-04  2.322899E-04  1.165292E-04  3.865543E-03  7.687102E-07  0.000000E+00  0.000000E+00    1 
 5.350000E+01  5.000000E-01  5.000000E-01  2.026379E+05  9.972060E+02  3.300234E+00  8.068913E-04  2.657282E-04  1.332316E-04  3.701531E-03  7.352720E-07  0.000000E+00  0.000000E+00    1 
 5.450000E+01  5.000000E-01  5.000000E-01  2.026097E+05  9.972059E+02  3.363122E+00  7.684761E-04  3.011432E-04  1.509214E-04  3.527824E-03  6.998571E-07  0.000000E+00  0.000000E+00    1 
 5.550000E+01  5.000000E-01  5.000000E-01  2.025815E+05  9.972059E+02  3.440706E+00  7.282508E-04  3.382269E-04  1.694447E-04  3.345933E-03  6.627736E-07  0.000000E+00  0.000000E+00    1 
 5.650000E+01  5.000000E-01  5.000000E-01  2.025532E+05  9.972059E+02  3.539290E+00  6.865953E-04  3.766292E-04  1.886266E-04  3.157573E-03  6.243714E-07  0.000000E+00  0.000000E+00    1 
 5.750000E+01  5.000000E-01  5.000000E-01  2.025250E+05  9.972059E+02  3.670982E+00  6.439231E-04  4.159687E-04  2.082767E-04  2.964617E-03  5.850324E-07  0.000000E+00  0.000000E+00    1 
 5.850000E+01  5.000000E-01  5.000000E-01  2.024968E+05  9.972059E+02  3.864057E+00  6.006688E-04  4.558450E-04  2.281948E-04  2.769028E-03  5.451579E-07  0.000000E+00  0.000000E+00    1 
 5.950000E+01  5.000000E-01  5.000000E-01  2.024685E+05  9.972059E+02  4.213533E+00  5.572738E-04  4.958508E-04  2.481777E-04  2.572803E-03  5.051538E-07  0.000000E+00  0.000000E+00    1 
 6.050000E+01  5.000000E-01  5.000000E-01  2.024403E+05  9.972059E+02  5.083196E+00  5.141736E-04  5.355850E-04  2.680249E-04  2.377911E-03  4.654166E-07  0.000000E+00  0.000000E+00    1 
 6.150000E+01  5.000000E-01  5.000000E-01  2.024121E+05  9.972059E+02  5.659078E+00  4.717844E-04  5.746636E-04  2.875447E-04  2.186234E-03  4.263376E-07  0.000000E+00  0.000000E+00    1 
 6.250000E+01  5.000000E-01  5.000000E-01  2.023838E+05  9.972058E+02  5.941339E+00  4.304925E-04  6.127306E-04  3.065592E-04  1.999519E-03  3.882704E-07  0.000000E+00  0.000000E+00    1 
 6.350000E+01  5.000000E-01  5.000000E-01  2.023556E+05  9.972058E+02  6.135164E+00  3.906446E-04  6.494664E-04  3.249087E-04  1.819334E-03  3.515344E-07  0.000000E+00  0.000000E+00    1 
 6.450000E+01  5.000000E-01  5.000000E-01  2.023274E+05  9.972058E+02  6.288090E+00  3.525408E-04  6.845944E-04  3.424551E-04  1.647035E-03  3.164063E-07  0.000000E+00  0.000000E+00    1 
 6.550000E+01  5.000000E-01  5.000000E-01  2.022991E+05  9.972058E+02  6.417819E+00  3.164292E-04  7.178857E-04  3.590841E-04  1.483744E-03  2.831150E-07  0.000000E+00  0.000000E+00    1 
 6.650000E+01  5.000000E-01  5.000000E-01  2.022709E+05  9.972058E+02  6.532844E+00  2.825039E-04  7.491614E-04  3.747063E-04  1.330340E-03  2.518392E-07  0.000000E+00  0.000000E+00    1 
 6.750000E+01  5.000000E-01  5.000000E-01  2.022426E+05  9.972058E+02  6.637881E+00  2.509041E-04  7.782934E-04  3.892577E-04  1.187451E-03  2.227072E-07  0.000000E+00  0.000000E+00    1 
 6.850000E+01  5.000000E-01  5.000000E-01  2.022144E+05  9.972058E+02  6.735801E+00  2.217156E-04  8.052023E-04  4.026986E-04  1.055465E-03  1.957983E-07  0.000000E+00  0.000000E+00    1 
 6.950000E+01  5.000000E-01  5.000000E-01  2.021862E+05  9.972058E+02  6.828459E+00  1.949744E-04  8.298551E-04  4.150127E-04  9.345456E-04  1.711455E-07  0.000000E+00  0.000000E+00    1 
 7.050000E+01  5.000000E-01  5.000000E-01  2.021579E+05  9.972057E+02  6.917092E+00  1.706706E-04  8.522607E-04  4.262043E-04  8.246482E-04  1.487398E-07  0.000000E+00  0.000000E+00    1 
 7.150000E+01  5.000000E-01  5.000000E-01  2.021297E+05  9.972057E+02  7.002533E+00  1.487549E-04  8.724649E-04  4.362963E-04  7.255487E-04  1.285356E-07  0.000000E+00  0.000000E+00    1 
 7.250000E+01  5.000000E-01  5.000000E-01  2.021015E+05  9.972057E+02  7.085324E+00  1.291435E-04  8.905445E-04  4.453271E-04  6.368696E-04  1.104559E-07  0.000000E+00  0.000000E+00    1 
 7.350000E+01  5.000000E-01  5.000000E-01  2.020732E+05  9.972057E+02  7.165780E+00  1.117258E-04  9.066019E-04  4.533477E-04  5.581097E-04  9.439848E-08  0.000000E+00  0.000000E+00    1 
 7.450000E+01  5.000000E-01  5.000000E-01  2.020450E+05  9.972057E+02  7.244019E+00  9.636988E-05  9.207586E-04  4.604190E-04  4.886726E-04  8.024179E-08  0.000000E+00  0.000000E+00    1 
 7.550000E+01  5.000000E-01  5.000000E-01  2.020168E+05  9.972057E+02  7.319981E+00  8.292894E-05  9.331498E-04  4.666084E-04  4.278949E-04  6.785056E-08  0.000000E+00  0.000000E+00    1 
 7.650000E+01  5.000000E-01  5.000000E-01  2.019885E+05  9.972057E+02  7.393441E+00  7.124705E-05  9.439193E-04  4.719877E-04  3.750714E-04  5.708101E-08  0.000000E+00  0.000000E+00    1 
 7.750000E+01  5.000000E-01  5.000000E-01  2.019603E+05  9.972056E+02  7.464021E+00  6.116410E-05  9.532148E-04  4.766308E-04  3.294780E-04  4.778551E-08  0.000000E+00  0.000000E+00    1 
 7.850000E+01  5.000000E-01  5.000000E-01  2.019321E+05  9.972056E+02  7.531213E+00  5.252012E-05  9.611837E-04  4.806113E-04  2.903914E-04  3.981661E-08  0.000000E+00  0.000000E+00    1 
 7.950000E+01  5.000000E-01  5.000000E-01  2.019038E+05  9.972056E+02  7.594430E+00  4.515891E-05  9.679700E-04  4.840010E-04  2.571052E-04  3.303029E-08  0.000000E+00  0.000000E+00    1 
 8.050000E+01  5.000000E-01  5.000000E-01  2.018756E+05  9.972056E+02  7.653066E+00  3.893089E-05  9.737116E-04  4.868690E-04  2.289431E-04  2.728867E-08  0.000000E+00  0.000000E+00    1 
 8.150000E+01  5.000000E-01  5.000000E-01  2.018474E+05  9.972056E+02  7.706584E+00  3.369523E-05  9.785384E-04  4.892799E-04  2.052684E-04  2.246190E-08  0.000000E+00  0.000000E+00    1 
 8.250000E+01  5.000000E-01  5.000000E-01  2.018191E+05  9.972056E+02  7.754595E+00  2.932136E-05  9.825706E-04  4.912940E-04  1.854904E-04  1.842962E-08  0.000000E+00  0.000000E+00    1 
 8.350000E+01  5.000000E-01  5.000000E-01  2.017909E+05  9.972056E+02  7.796918E+00  2.568985E-05  9.859185E-04  4.929663E-04  1.690694E-04  1.508172E-08  0.000000E+00  0.000000E+00    1 
 8.450000E+01  5.000000E-01  5.000000E-01  2.017626E+05  9.972056E+02  7.833599E+00  2.269288E-05  9.886814E-04  4.943464E-04  1.555176E-04  1.231881E-08  0.000000E+00  0.000000E+00    1 
 8.550000E+01  5.000000E-01  5.000000E-01  2.017344E+05  9.972055E+02  7.864891E+00  2.023419E-05  9.909481E-04  4.954786E-04  1.443998E-04  1.005214E-08  0.000000E+00  0.000000E+00    1 
 8.650000E+01  5.000000E-01  5.000000E-01  2.017062E+05  9.972055E+02  7.891208E+00  1.822881E-05  9.927968E-04  4.964020E-04  1.353318E-04  8.203373E-09  0.000000E+00  0.000000E+00    1 
 8.750000E+01  5.000000E-01  5.000000E-01  2.016779E+05  9.972055E+02  7.913061E+00  1.660248E-05  9.942961E-04  4.971509E-04  1.279778E-04  6.704055E-09  0.000000E+00  0.000000E+00    1 
 8.850000E+01  5.000000E-01  5.000000E-01  2.016497E+05  9.972055E+02  7.931006E+00  1.529093E-05  9.955052E-04  4.977549E-04  1.220472E-04  5.494931E-09  0.000000E+00  0.000000E+00    1 
 8.950000E+01  5.000000E-01  5.000000E-01  2.016215E+05  9.972055E+02  7.945597E+00  1.423904E-05  9.964749E-04  4.982392E-04  1.172907E-04  4.525191E-09  0.000000E+00  0.000000E+00    1 
 9.050000E+01  5.000000E-01  5.000000E-01  2.015932E+05  9.972055E+02  7.957359E+00  1.339995E-05  9.972485E-04  4.986256E-04  1.134965E-04  3.751635E-09  0.000000E+00  0.000000E+00    1 
 9.150000E+01  5.000000E-01  5.000000E-01  2.015650E+05  9.972055E+02  7.966765E+00  1.273416E-05  9.978623E-04  4.989322E-04  1.104859E-04  3.137842E-09  0.000000E+00  0.000000E+00    1 
 9.250000E+01  5.000000E-01  5.000000E-01  2.015368E+05  9.972055E+02  7.974234E+00  1.220863E-05  9.983467E-04  4.991742E-04  1.081095E-04  2.653352E-09  0.000000E+00  0.000000E+00    1 
 9.350000E+01  5.000000E-01  5.000000E-01  2.015085E+05  9.972054E+02  7.980127E+00  1.179592E-05  9.987272E-04  4.993642E-04  1.062434E-04  2.272881E-09  0.000000E+00  0.000000E+00    1 
 9.450000E+01  5.000000E-01  5.000000E-01  2.014803E+05  9.972054E+02  7.984746E+00  1.147345E-05  9.990245E-04  4.995127E-04  1.047852E-04  1.975596E-09  0.000000E+00  0.000000E+00    1 
 9.550000E+01  5.000000E-01  5.000000E-01  2.014521E+05  9.972054E+02  7.988348E+00  1.122273E-05  9.992556E-04  4.996282E-04  1.036515E-04  1.744457E-09  0.000000E+00  0.000000E+00    1 
 9.650000E+01  5.000000E-01  5.000000E-01  2.014238E+05  9.972054E+02  7.991139E+00  1.102875E-05  9.994344E-04  4.997175E-04  1.027743E-04  1.565618E-09  0.000000E+00  0.000000E+00    1 
 9.750000E+01  5.000000E-01  5.000000E-01  2.013956E+05  9.972054E+02  7.993293E+00  1.087937E-05  9.995721E-04  4.997863E-04  1.020988E-04  1.427905E-09  0.000000E+00  0.000000E+00    1 
 9.850000E+01  5.000000E-01  5.000000E-01  2.013674E+05  9.972054E+02  7.994945E+00  1.076488E-05  9.996777E-04  4.998390E-04  1.015811E-04  1.322361E-09  0.000000E+00  0.000000E+00    1 
 9.950000E+01  5.000000E-01  5.000000E-01  2.013391E+05  9.972054E+02  7.996200E+00  1.067793E-05  9.997578E-04  4.998790E-04  1.011880E-04  1.242201E-09  0.000000E+00  0.000000E+00    1 
