TITLE = "  2.50000E+01 [y]"
VARIABLES="X [m]","Y [m]","Z [m]","Liquid Pressure [Pa]","Liquid Density [kg/m^3]","pH","Total H+ [M]","Total HCO3- [M]","Total Ca++ [M]","Total SO4-- [M]","Total UO2++ [M]","Calcite VF [m^3 mnrl/m^3 bulk]","Calcite Rate [mol/m^3/sec]","Material ID"
ZONE T="2.50000E+01", STRANDID=1, SOLUTIONTIME=2.50000E+01, I=100, J=1, K=1, DATAPACKING=POINT
 5.000000E-01  5.000000E-01  5.000000E-01  2.041344E+05  9.972066E+02  3.000039E+00  1.094047E-03  9.999154E-07  9.999869E-07  5.000000E-03  1.000000E-06  0.000000E+00  0.000000E+00    1 
 1.500000E+00  5.000000E-01  5.000000E-01  2.041062E+05  9.972066E+02  3.000039E+00  1.094047E-03  9.999154E-07  9.999868E-07  5.000000E-03  1.000000E-06  0.000000E+00  0.000000E+00    1 
 2.500000E+00  5.000000E-01  5.000000E-01  2.040779E+05  9.972066E+02  3.000039E+00  1.094047E-03  9.999154E-07  9.999868E-07  5.000000E-03  1.000000E-06  0.000000E+00  0.000000E+00    1 
 3.500000E+00  5.000000E-01  5.000000E-01  2.040497E+05  9.972066E+02  3.000039E+00  1.094047E-03  9.999154E-07  9.999868E-07  5.000000E-03  1.000000E-06  0.000000E+00  0.000000E+00    1 
 4.500000E+00  5.000000E-01  5.000000E-01  2.040215E+05  9.972066E+02  3.000039E+00  1.094047E-03  9.999154E-07  9.999868E-07  5.000000E-03  9.999999E-07  0.000000E+00  0.000000E+00    1 
 5.500000E+00  5.000000E-01  5.000000E-01  2.039932E+05  9.972066E+02  3.000039E+00  1.094047E-03  9.999153E-07  9.999868E-07  5.000000E-03  9.999999E-07  0.000000E+00  0.000000E+00    1 
 6.500000E+00  5.000000E-01  5.000000E-01  2.039650E+05  9.972065E+02  3.000039E+00  1.094047E-03  9.999153E-07  9.999868E-07  5.000000E-03  9.999999E-07  0.000000E+00  0.000000E+00    1 
 7.500000E+00  5.000000E-01  5.000000E-01  2.039368E+05  9.972065E+02  3.000039E+00  1.094047E-03  9.999153E-07  9.999868E-07  5.000000E-03  9.999999E-07  0.000000E+00  0.000000E+00    1 
 8.500000E+00  5.000000E-01  5.000000E-01  2.039085E+05  9.972065E+02  3.000039E+00  1.094047E-03  9.999153E-07  9.999868E-07  4.999999E-03  9.999999E-07  0.000000E+00  0.000000E+00    1 
 9.500000E+00  5.000000E-01  5.000000E-01  2.038803E+05  9.972065E+02  3.000039E+00  1.094047E-03  9.999153E-07  9.999867E-07  4.999999E-03  9.999999E-07  0.000000E+00  0.000000E+00    1 
 1.050000E+01  5.000000E-01  5.000000E-01  2.038521E+05  9.972065E+02  3.000039E+00  1.094047E-03  9.999153E-07  9.999867E-07  4.999999E-03  9.999999E-07  0.000000E+00  0.000000E+00    1 
 1.150000E+01  5.000000E-01  5.000000E-01  2.038238E+05  9.972065E+02  3.000039E+00  1.094047E-03  9.999153E-07  9.999867E-07  4.999999E-03  9.999999E-07  0.000000E+00  0.000000E+00    1 
 1.250000E+01  5.000000E-01  5.000000E-01  2.037956E+05  9.972065E+02  3.000039E+00  1.094046E-03  9.999153E-07  9.999867E-07  4.999999E-03  9.999998E-07  0.000000E+00  0.000000E+00    1 
 1.350000E+01  5.000000E-01  5.000000E-01  2.037673E+05  9.972065E+02  3.000039E+00  1.094046E-03  9.999152E-07  9.999867E-07  4.999999E-03  9.999998E-07  0.000000E+00  0.000000E+00    1 
 1.450000E+01  5.000000E-01  5.000000E-01  2.037391E+05  9.972064E+02  3.000039E+00  1.094046E-03  9.999152E-07  9.999867E-07  4.999999E-03  9.999998E-07  0.000000E+00  0.000000E+00    1 
 1.550000E+01  5.000000E-01  5.000000E-01  2.037109E+05  9.972064E+02  3.000039E+00  1.094046E-03  9.999152E-07  9.999867E-07  4.999999E-03  9.999998E-07  0.000000E+00  0.000000E+00    1 
 1.650000E+01  5.000000E-01  5.000000E-01  2.036826E+05  9.972064E+02  3.000039E+00  1.094046E-03  9.999152E-07  9.999867E-07  4.999999E-03  9.999998E-07  0.000000E+00  0.000000E+00    1 
 1.750000E+01  5.000000E-01  5.000000E-01  2.036544E+05  9.972064E+02  3.000039E+00  1.094046E-03  9.999152E-07  9.999866E-07  4.999999E-03  9.999998E-07  0.000000E+00  0.000000E+00    1 
 1.850000E+01  5.000000E-01  5.000000E-01  2.036262E+05  9.972064E+02  3.000039E+00  1.094046E-03  9.999152E-07  9.999866E-07  4.999999E-03  9.999998E-07  0.000000E+00  0.000000E+00    1 
 1.950000E+01  5.000000E-01  5.000000E-01  2.035979E+05  9.972064E+02  3.000039E+00  1.094046E-03  9.999152E-07  9.999866E-07  4.999999E-03  9.999998E-07  0.000000E+00  0.000000E+00    1 
 2.050000E+01  5.000000E-01  5.000000E-01  2.035697E+05  9.972064E+02  3.000039E+00  1.094046E-03  9.999152E-07  9.999866E-07  4.999999E-03  9.999997E-07  0.000000E+00  0.000000E+00    1 
 2.150000E+01  5.000000E-01  5.000000E-01  2.035415E+05  9.972064E+02  3.000039E+00  1.094046E-03  9.999151E-07  9.999866E-07  4.999999E-03  9.999997E-07  0.000000E+00  0.000000E+00    1 
 2.250000E+01  5.000000E-01  5.000000E-01  2.035132E+05  9.972063E+02  3.000039E+00  1.094046E-03  9.999151E-07  9.999866E-07  4.999999E-03  9.999997E-07  0.000000E+00  0.000000E+00    1 
 2.350000E+01  5.000000E-01  5.000000E-01  2.034850E+05  9.972063E+02  3.000039E+00  1.094046E-03  9.999151E-07  9.999866E-07  4.999998E-03  9.999997E-07  0.000000E+00  0.000000E+00    1 
 2.450000E+01  5.000000E-01  5.000000E-01  2.034568E+05  9.972063E+02  3.000039E+00  1.094046E-03  9.999151E-07  9.999866E-07  4.999998E-03  9.999997E-07  0.000000E+00  0.000000E+00    1 
 2.550000E+01  5.000000E-01  5.000000E-01  2.034285E+05  9.972063E+02  3.000039E+00  1.094046E-03  9.999151E-07  9.999865E-07  4.999998E-03  9.999997E-07  0.000000E+00  0.000000E+00    1 
 2.650000E+01  5.000000E-01  5.000000E-01  2.034003E+05  9.972063E+02  3.000039E+00  1.094046E-03  9.999151E-07  9.999865E-07  4.999998E-03  9.999997E-07  0.000000E+00  0.000000E+00    1 
 2.750000E+01  5.000000E-01  5.000000E-01  2.033721E+05  9.972063E+02  3.000039E+00  1.094046E-03  9.999151E-07  9.999865E-07  4.999998E-03  9.999996E-07  0.000000E+00  0.000000E+00    1 
 2.850000E+01  5.000000E-01  5.000000E-01  2.033438E+05  9.972063E+02  3.000039E+00  1.094046E-03  9.999151E-07  9.999865E-07  4.999998E-03  9.999996E-07  0.000000E+00  0.000000E+00    1 
 2.950000E+01  5.000000E-01  5.000000E-01  2.033156E+05  9.972063E+02  3.000039E+00  1.094046E-03  9.999151E-07  9.999865E-07  4.999998E-03  9.999996E-07  0.000000E+00  0.000000E+00    1 
 3.050000E+01  5.000000E-01  5.000000E-01  2.032874E+05  9.972062E+02  3.000039E+00  1.094046E-03  9.999151E-07  9.999865E-07  4.999998E-03  9.999996E-07  0.000000E+00  0.000000E+00    1 
 3.150000E+01  5.000000E-01  5.000000E-01  2.032591E+05  9.972062E+02  3.000039E+00  1.094046E-03  9.999151E-07  9.999865E-07  4.999998E-03  9.999996E-07  0.000000E+00  0.000000E+00    1 
 3.250000E+01  5.000000E-01  5.000000E-01  2.032309E+05  9.972062E+02  3.000039E+00  1.094046E-03  9.999153E-07  9.999866E-07  4.999998E-03  9.999996E-07  0.000000E+00  0.000000E+00    1 
 3.350000E+01  5.000000E-01  5.000000E-01  2.032026E+05  9.972062E+02  3.000039E+00  1.094046E-03  9.999155E-07  9.999867E-07  4.999998E-03  9.999996E-07  0.000000E+00  0.000000E+00    1 
 3.450000E+01  5.000000E-01  5.000000E-01  2.031744E+05  9.972062E+02  3.000039E+00  1.094046E-03  9.999161E-07  9.999870E-07  4.999998E-03  9.999996E-07  0.000000E+00  0.000000E+00    1 
 3.550000E+01  5.000000E-01  5.000000E-01  2.031462E+05  9.972062E+02  3.000039E+00  1.094046E-03  9.999173E-07  9.999876E-07  4.999998E-03  9.999995E-07  0.000000E+00  0.000000E+00    1 
 3.650000E+01  5.000000E-01  5.000000E-01  2.031179E+05  9.972062E+02  3.000039E+00  1.094046E-03  9.999195E-07  9.999887E-07  4.999998E-03  9.999995E-07  0.000000E+00  0.000000E+00    1 
 3.750000E+01  5.000000E-01  5.000000E-01  2.030897E+05  9.972062E+02  3.000039E+00  1.094046E-03  9.999240E-07  9.999909E-07  4.999998E-03  9.999995E-07  0.000000E+00  0.000000E+00    1 
 3.850000E+01  5.000000E-01  5.000000E-01  2.030615E+05  9.972061E+02  3.000039E+00  1.094046E-03  9.999323E-07  9.999951E-07  4.999997E-03  9.999995E-07  0.000000E+00  0.000000E+00    1 
 3.950000E+01  5.000000E-01  5.000000E-01  2.030332E+05  9.972061E+02  3.000039E+00  1.094046E-03  9.999477E-07  1.000003E-06  4.999997E-03  9.999995E-07  0.000000E+00  0.000000E+00    1 
 4.050000E+01  5.000000E-01  5.000000E-01  2.030050E+05  9.972061E+02  3.000039E+00  1.094046E-03  9.999758E-07  1.000017E-06  4.999997E-03  9.999994E-07  0.000000E+00  0.000000E+00    1 
 4.150000E+01  5.000000E-01  5.000000E-01  2.029768E+05  9.972061E+02  3.000039E+00  1.094046E-03  1.000026E-06  1.000042E-06  4.999997E-03  9.999994E-07  0.000000E+00  0.000000E+00    1 
 4.250000E+01  5.000000E-01  5.000000E-01  2.029485E+05  9.972061E+02  3.000039E+00  1.094046E-03  1.000113E-06  1.000086E-06  4.999996E-03  9.999993E-07  0.000000E+00  0.000000E+00    1 
 4.350000E+01  5.000000E-01  5.000000E-01  2.029203E+05  9.972061E+02  3.000039E+00  1.094046E-03  1.000264E-06  1.000161E-06  4.999996E-03  9.999991E-07  0.000000E+00  0.000000E+00    1 
 4.450000E+01  5.000000E-01  5.000000E-01  2.028921E+05  9.972061E+02  3.000039E+00  1.094045E-03  1.000520E-06  1.000288E-06  4.999994E-03  9.999988E-07  0.000000E+00  0.000000E+00    1 
 4.550000E+01  5.000000E-01  5.000000E-01  2.028638E+05  9.972061E+02  3.000039E+00  1.094045E-03  1.000945E-06  1.000501E-06  4.999992E-03  9.999984E-07  0.000000E+00  0.000000E+00    1 
 4.650000E+01  5.000000E-01  5.000000E-01  2.028356E+05  9.972060E+02  3.000040E+00  1.094044E-03  1.001643E-06  1.000849E-06  4.999989E-03  9.999977E-07  0.000000E+00  0.000000E+00    1 
 4.750000E+01  5.000000E-01  5.000000E-01  2.028074E+05  9.972060E+02  3.000041E+00  1.094043E-03  1.002768E-06  1.001412E-06  4.999983E-03  9.999965E-07  0.000000E+00  0.000000E+00    1 
 4.850000E+01  5.000000E-01  5.000000E-01  2.027791E+05  9.972060E+02  3.000042E+00  1.094041E-03  1.004558E-06  1.002306E-06  4.999974E-03  9.999947E-07  0.000000E+00  0.000000E+00    1 
 4.950000E+01  5.000000E-01  5.000000E-01  2.027509E+05  9.972060E+02  3.000045E+00  1.094038E-03  1.007363E-06  1.003707E-06  4.999960E-03  9.999919E-07  0.000000E+00  0.000000E+00    1 
 5.050000E+01  5.000000E-01  5.000000E-01  2.027226E+05  9.972060E+02  3.000048E+00  1.094033E-03  1.011696E-06  1.005871E-06  4.999939E-03  9.999876E-07  0.000000E+00  0.000000E+00    1 
 5.150000E+01  5.000000E-01  5.000000E-01  2.026944E+05  9.972060E+02  3.000053E+00  1.094026E-03  1.018295E-06  1.009167E-06  4.999907E-03  9.999810E-07  0.000000E+00  0.000000E+00    1 
 5.250000E+01  5.000000E-01  5.000000E-01  2.026662E+05  9.972060E+02  3.000061E+00  1.094015E-03  1.028212E-06  1.014121E-06  4.999858E-03  9.999710E-07  0.000000E+00  0.000000E+00    1 
 5.350000E+01  5.000000E-01  5.000000E-01  2.026379E+05  9.972060E+02  3.000073E+00  1.093999E-03  1.042916E-06  1.021465E-06  4.999786E-03  9.999563E-07  0.000000E+00  0.000000E+00    1 
 5.450000E+01  5.000000E-01  5.000000E-01  2.026097E+05  9.972059E+02  3.000091E+00  1.093976E-03  1.064438E-06  1.032216E-06  4.999680E-03  9.999348E-07  0.000000E+00  0.000000E+00    1 
 5.550000E+01  5.000000E-01  5.000000E-01  2.025815E+05  9.972059E+02  3.000116E+00  1.093942E-03  1.095543E-06  1.047752E-06  4.999527E-03  9.999037E-07  0.000000E+00  0.000000E+00    1 
 5.650000E+01  5.000000E-01  5.000000E-01  2.025532E+05  9.972059E+02  3.000152E+00  1.093894E-03  1.139943E-06  1.069930E-06  4.999310E-03  9.998593E-07  0.000000E+00  0.000000E+00    1 
 5.750000E+01  5.000000E-01  5.000000E-01  2.025250E+05  9.972059E+02  3.000203E+00  1.093826E-03  1.202559E-06  1.101207E-06  4.999002E-03  9.997966E-07  0.000000E+00  0.000000E+00    1 
 5.850000E+01  5.000000E-01  5.000000E-01  2.024968E+05  9.972059E+02  3.000273E+00  1.093731E-03  1.289826E-06  1.144797E-06  4.998574E-03  9.997093E-07  0.000000E+00  0.000000E+00    1 
 5.950000E+01  5.000000E-01  5.000000E-01  2.024685E+05  9.972059E+02  3.000371E+00  1.093601E-03  1.410049E-06  1.204848E-06  4.997985E-03  9.995891E-07  0.000000E+00  0.000000E+00    1 
 6.050000E+01  5.000000E-01  5.000000E-01  2.024403E+05  9.972059E+02  3.000503E+00  1.093423E-03  1.573811E-06  1.286647E-06  4.997181E-03  9.994253E-07  0.000000E+00  0.000000E+00    1 
 6.150000E+01  5.000000E-01  5.000000E-01  2.024121E+05  9.972059E+02  3.000682E+00  1.093184E-03  1.794420E-06  1.396841E-06  4.996099E-03  9.992047E-07  0.000000E+00  0.000000E+00    1 
 6.250000E+01  5.000000E-01  5.000000E-01  2.023838E+05  9.972058E+02  3.000921E+00  1.092865E-03  2.088406E-06  1.543687E-06  4.994657E-03  9.989107E-07  0.000000E+00  0.000000E+00    1 
 6.350000E+01  5.000000E-01  5.000000E-01  2.023556E+05  9.972058E+02  3.001235E+00  1.092445E-03  2.476039E-06  1.737310E-06  4.992756E-03  9.985231E-07  0.000000E+00  0.000000E+00    1 
 6.450000E+01  5.000000E-01  5.000000E-01  2.023274E+05  9.972058E+02  3.001646E+00  1.091896E-03  2.981866E-06  1.989970E-06  4.990275E-03  9.980172E-07  0.000000E+00  0.000000E+00    1 
 6.550000E+01  5.000000E-01  5.000000E-01  2.022991E+05  9.972058E+02  3.002178E+00  1.091187E-03  3.635240E-06  2.316330E-06  4.987070E-03  9.973639E-07  0.000000E+00  0.000000E+00    1 
 6.650000E+01  5.000000E-01  5.000000E-01  2.022709E+05  9.972058E+02  3.002859E+00  1.090281E-03  4.470821E-06  2.733702E-06  4.982971E-03  9.965283E-07  0.000000E+00  0.000000E+00    1 
 6.750000E+01  5.000000E-01  5.000000E-01  2.022426E+05  9.972058E+02  3.003723E+00  1.089133E-03  5.529030E-06  3.262277E-06  4.977781E-03  9.954700E-07  0.000000E+00  0.000000E+00    1 
 6.850000E+01  5.000000E-01  5.000000E-01  2.022144E+05  9.972058E+02  3.004810E+00  1.087693E-03  6.856403E-06  3.925299E-06  4.971270E-03  9.941427E-07  0.000000E+00  0.000000E+00    1 
 6.950000E+01  5.000000E-01  5.000000E-01  2.021862E+05  9.972058E+02  3.006165E+00  1.085904E-03  8.505836E-06  4.749190E-06  4.963180E-03  9.924932E-07  0.000000E+00  0.000000E+00    1 
 7.050000E+01  5.000000E-01  5.000000E-01  2.021579E+05  9.972057E+02  3.007838E+00  1.083701E-03  1.053668E-05  5.763594E-06  4.953219E-03  9.904624E-07  0.000000E+00  0.000000E+00    1 
 7.150000E+01  5.000000E-01  5.000000E-01  2.021297E+05  9.972057E+02  3.009890E+00  1.081013E-03  1.301463E-05  7.001331E-06  4.941064E-03  9.879844E-07  0.000000E+00  0.000000E+00    1 
 7.250000E+01  5.000000E-01  5.000000E-01  2.021015E+05  9.972057E+02  3.012385E+00  1.077762E-03  1.601145E-05  8.498241E-06  4.926365E-03  9.849876E-07  0.000000E+00  0.000000E+00    1 
 7.350000E+01  5.000000E-01  5.000000E-01  2.020732E+05  9.972057E+02  3.015397E+00  1.073865E-03  1.960440E-05  1.029292E-05  4.908742E-03  9.813947E-07  0.000000E+00  0.000000E+00    1 
 7.450000E+01  5.000000E-01  5.000000E-01  2.020450E+05  9.972057E+02  3.019006E+00  1.069232E-03  2.387544E-05  1.242630E-05  4.887793E-03  9.771236E-07  0.000000E+00  0.000000E+00    1 
 7.550000E+01  5.000000E-01  5.000000E-01  2.020168E+05  9.972057E+02  3.023300E+00  1.063771E-03  2.891019E-05  1.494115E-05  4.863098E-03  9.720889E-07  0.000000E+00  0.000000E+00    1 
 7.650000E+01  5.000000E-01  5.000000E-01  2.019885E+05  9.972057E+02  3.028378E+00  1.057386E-03  3.479656E-05  1.788139E-05  4.834226E-03  9.662025E-07  0.000000E+00  0.000000E+00    1 
 7.750000E+01  5.000000E-01  5.000000E-01  2.019603E+05  9.972056E+02  3.034345E+00  1.049981E-03  4.162323E-05  2.129131E-05  4.800742E-03  9.593759E-07  0.000000E+00  0.000000E+00    1 
 7.850000E+01  5.000000E-01  5.000000E-01  2.019321E+05  9.972056E+02  3.041318E+00  1.041461E-03  4.947784E-05  2.521468E-05  4.762216E-03  9.515213E-07  0.000000E+00  0.000000E+00    1 
 7.950000E+01  5.000000E-01  5.000000E-01  2.019038E+05  9.972056E+02  3.049424E+00  1.031734E-03  5.844499E-05  2.969377E-05  4.718233E-03  9.425542E-07  0.000000E+00  0.000000E+00    1 
 8.050000E+01  5.000000E-01  5.000000E-01  2.018756E+05  9.972056E+02  3.058800E+00  1.020714E-03  6.860415E-05  3.476826E-05  4.668403E-03  9.323951E-07  0.000000E+00  0.000000E+00    1 
 8.150000E+01  5.000000E-01  5.000000E-01  2.018474E+05  9.972056E+02  3.069599E+00  1.008323E-03  8.002748E-05  4.047421E-05  4.612373E-03  9.209718E-07  0.000000E+00  0.000000E+00    1 
 8.250000E+01  5.000000E-01  5.000000E-01  2.018191E+05  9.972056E+02  3.081990E+00  9.944929E-04  9.277763E-05  4.684291E-05  4.549834E-03  9.082217E-07  0.000000E+00  0.000000E+00    1 
 8.350000E+01  5.000000E-01  5.000000E-01  2.017909E+05  9.972056E+02  3.096159E+00  9.791681E-04  1.069056E-04  5.389982E-05  4.480538E-03  8.940938E-07  0.000000E+00  0.000000E+00    1 
 8.450000E+01  5.000000E-01  5.000000E-01  2.017626E+05  9.972056E+02  3.112319E+00  9.623081E-04  1.224488E-04  6.166362E-05  4.404300E-03  8.785507E-07  0.000000E+00  0.000000E+00    1 
 8.550000E+01  5.000000E-01  5.000000E-01  2.017344E+05  9.972055E+02  3.130710E+00  9.438893E-04  1.394291E-04  7.014529E-05  4.321014E-03  8.615704E-07  0.000000E+00  0.000000E+00    1 
 8.650000E+01  5.000000E-01  5.000000E-01  2.017062E+05  9.972055E+02  3.151613E+00  9.239060E-04  1.578517E-04  7.934736E-05  4.230653E-03  8.431479E-07  0.000000E+00  0.000000E+00    1 
 8.750000E+01  5.000000E-01  5.000000E-01  2.016779E+05  9.972055E+02  3.175358E+00  9.023724E-04  1.777036E-04  8.926337E-05  4.133281E-03  8.232961E-07  0.000000E+00  0.000000E+00    1 
 8.850000E+01  5.000000E-01  5.000000E-01  2.016497E+05  9.972055E+02  3.202343E+00  8.793228E-04  1.989530E-04  9.987747E-05  4.029054E-03  8.020468E-07  0.000000E+00  0.000000E+00    1 
 8.950000E+01  5.000000E-01  5.000000E-01  2.016215E+05  9.972055E+02  3.233057E+00  8.548123E-04  2.215493E-04  1.111643E-04  3.918222E-03  7.794507E-07  0.000000E+00  0.000000E+00    1 
 9.050000E+01  5.000000E-01  5.000000E-01  2.015932E+05  9.972055E+02  3.268116E+00  8.289166E-04  2.454225E-04  1.230889E-04  3.801126E-03  7.555776E-07  0.000000E+00  0.000000E+00    1 
 9.150000E+01  5.000000E-01  5.000000E-01  2.015650E+05  9.972055E+02  3.308322E+00  8.017313E-04  2.704846E-04  1.356075E-04  3.678199E-03  7.305155E-07  0.000000E+00  0.000000E+00    1 
 9.250000E+01  5.000000E-01  5.000000E-01  2.015368E+05  9.972055E+02  3.354747E+00  7.733707E-04  2.966304E-04  1.486673E-04  3.549957E-03  7.043699E-07  0.000000E+00  0.000000E+00    1 
 9.350000E+01  5.000000E-01  5.000000E-01  2.015085E+05  9.972054E+02  3.408884E+00  7.439659E-04  3.237387E-04  1.622078E-04  3.416993E-03  6.772617E-07  0.000000E+00  0.000000E+00    1 
 9.450000E+01  5.000000E-01  5.000000E-01  2.014803E+05  9.972054E+02  3.472911E+00  7.136635E-04  3.516745E-04  1.761618E-04  3.279971E-03  6.493259E-07  0.000000E+00  0.000000E+00    1 
 9.550000E+01  5.000000E-01  5.000000E-01  2.014521E+05  9.972054E+02  3.550193E+00  6.826223E-04  3.802913E-04  1.904559E-04  3.139608E-03  6.207092E-07  0.000000E+00  0.000000E+00    1 
 9.650000E+01  5.000000E-01  5.000000E-01  2.014238E+05  9.972054E+02  3.646352E+00  6.510114E-04  4.094335E-04  2.050123E-04  2.996669E-03  5.915671E-07  0.000000E+00  0.000000E+00    1 
 9.750000E+01  5.000000E-01  5.000000E-01  2.013956E+05  9.972054E+02  3.771870E+00  6.190066E-04  4.389387E-04  2.197502E-04  2.851949E-03  5.620619E-07  0.000000E+00  0.000000E+00    1 
 9.850000E+01  5.000000E-01  5.000000E-01  2.013674E+05  9.972054E+02  3.949829E+00  5.867898E-04  4.686395E-04  2.345857E-04  2.706269E-03  5.323612E-07  0.000000E+00  0.000000E+00    1 
 9.950000E+01  5.000000E-01  5.000000E-01  2.013391E+05  9.972054E+02  4.244452E+00  5.547865E-04  4.981433E-04  2.493229E-04  2.561556E-03  5.028573E-07  0.000000E+00  0.000000E+00    1 
