TITLE = "  2.50000E+01 [y]"
VARIABLES="X [m]","Y [m]","Z [m]","Liquid Pressure [Pa]","Liquid Density [kg/m^3]","pH","Total H+ [M]","Total HCO3- [M]","Total Ca++ [M]","Total SO4-- [M]","Total UO2++ [M]","Calcite VF [m^3 mnrl/m^3 bulk]","Calcite Rate [mol/m^3/sec]","Material ID"
ZONE T="2.50000E+01", STRANDID=1, SOLUTIONTIME=2.50000E+01, I=100, J=1, K=1, DATAPACKING=POINT
 5.000000E-01  5.000000E-01  5.000000E-01  2.041344E+05  9.972066E+02  3.242851E+00  8.599198E-04  2.351268E-04  2.351269E-04  5.000000E-03  1.000001E-06  0.000000E+00  0.000000E+00    1 
 1.500000E+00  5.000000E-01  5.000000E-01  2.041062E+05  9.972066E+02  8.106418E+00 -3.677381E-06  1.098724E-03  1.098724E-03  5.000000E-03  1.000000E-06  9.865308E-04 -2.759249E-08    1 
 2.500000E+00  5.000000E-01  5.000000E-01  2.040779E+05  9.972066E+02  8.117934E+00 -4.569689E-06  1.099616E-03  1.099616E-03  5.000000E-03  1.000000E-06  9.999842E-04 -2.850995E-11    1 
 3.500000E+00  5.000000E-01  5.000000E-01  2.040497E+05  9.972066E+02  8.117946E+00 -4.570600E-06  1.099617E-03  1.099617E-03  5.000000E-03  1.000000E-06  9.999979E-04 -2.910208E-14    1 
 4.500000E+00  5.000000E-01  5.000000E-01  2.040215E+05  9.972066E+02  8.117946E+00 -4.570601E-06  1.099617E-03  1.099617E-03  5.000000E-03  1.000000E-06  9.999972E-04 -2.970602E-17    1 
 5.500000E+00  5.000000E-01  5.000000E-01  2.039932E+05  9.972066E+02  8.117946E+00 -4.570600E-06  1.099617E-03  1.099617E-03  5.000000E-03  9.999999E-07  9.999963E-04 -3.108624E-20    1 
 6.500000E+00  5.000000E-01  5.000000E-01  2.039650E+05  9.972065E+02  8.117946E+00 -4.570600E-06  1.099617E-03  1.099617E-03  5.000000E-03  9.999999E-07  9.999956E-04 -8.881784E-22    1 
 7.500000E+00  5.000000E-01  5.000000E-01  2.039368E+05  9.972065E+02  8.117946E+00 -4.570600E-06  1.099617E-03  1.099617E-03  5.000000E-03  9.999999E-07  9.999951E-04  8.881784E-22    1 
 8.500000E+00  5.000000E-01  5.000000E-01  2.039085E+05  9.972065E+02  8.117946E+00 -4.570600E-06  1.099617E-03  1.099617E-03  4.999999E-03  9.999999E-07  9.999949E-04 -8.881784E-22    1 
 9.500000E+00  5.000000E-01  5.000000E-01  2.038803E+05  9.972065E+02  8.117946E+00 -4.570600E-06  1.099617E-03  1.099617E-03  4.999999E-03  9.999999E-07  9.999947E-04  1.776357E-21    1 
 1.050000E+01  5.000000E-01  5.000000E-01  2.038521E+05  9.972065E+02  8.117946E+00 -4.570600E-06  1.099617E-03  1.099617E-03  4.999999E-03  9.999999E-07  9.999946E-04 -3.552714E-21    1 
 1.150000E+01  5.000000E-01  5.000000E-01  2.038238E+05  9.972065E+02  8.117946E+00 -4.570600E-06  1.099617E-03  1.099617E-03  4.999999E-03  9.999999E-07  9.999946E-04 -0.000000E+00    1 
 1.250000E+01  5.000000E-01  5.000000E-01  2.037956E+05  9.972065E+02  8.117946E+00 -4.570600E-06  1.099617E-03  1.099617E-03  4.999999E-03  9.999998E-07  9.999947E-04  8.881784E-22    1 
 1.350000E+01  5.000000E-01  5.000000E-01  2.037673E+05  9.972065E+02  8.117946E+00 -4.570600E-06  1.099617E-03  1.099617E-03  4.999999E-03  9.999998E-07  9.999948E-04 -8.881784E-22    1 
 1.450000E+01  5.000000E-01  5.000000E-01  2.037391E+05  9.972064E+02  8.117946E+00 -4.570600E-06  1.099617E-03  1.099617E-03  4.999999E-03  9.999998E-07  9.999949E-04  1.776357E-21    1 
 1.550000E+01  5.000000E-01  5.000000E-01  2.037109E+05  9.972064E+02  8.117946E+00 -4.570600E-06  1.099617E-03  1.099617E-03  4.999999E-03  9.999998E-07  9.999950E-04 -2.664535E-21    1 
 1.650000E+01  5.000000E-01  5.000000E-01  2.036826E+05  9.972064E+02  8.117946E+00 -4.570600E-06  1.099617E-03  1.099617E-03  4.999999E-03  9.999998E-07  9.999952E-04  2.664535E-21    1 
 1.750000E+01  5.000000E-01  5.000000E-01  2.036544E+05  9.972064E+02  8.117946E+00 -4.570600E-06  1.099617E-03  1.099617E-03  4.999999E-03  9.999998E-07  9.999953E-04 -0.000000E+00    1 
 1.850000E+01  5.000000E-01  5.000000E-01  2.036262E+05  9.972064E+02  8.117946E+00 -4.570600E-06  1.099617E-03  1.099617E-03  4.999999E-03  9.999998E-07  9.999955E-04 -0.000000E+00    1 
 1.950000E+01  5.000000E-01  5.000000E-01  2.035979E+05  9.972064E+02  8.117946E+00 -4.570600E-06  1.099617E-03  1.099617E-03  4.999999E-03  9.999998E-07  9.999956E-04  8.881784E-22    1 
 2.050000E+01  5.000000E-01  5.000000E-01  2.035697E+05  9.972064E+02  8.117946E+00 -4.570599E-06  1.099617E-03  1.099617E-03  4.999999E-03  9.999997E-07  9.999957E-04  1.776357E-21    1 
 2.150000E+01  5.000000E-01  5.000000E-01  2.035415E+05  9.972064E+02  8.117946E+00 -4.570599E-06  1.099617E-03  1.099617E-03  4.999999E-03  9.999997E-07  9.999959E-04  8.881784E-22    1 
 2.250000E+01  5.000000E-01  5.000000E-01  2.035132E+05  9.972063E+02  8.117946E+00 -4.570599E-06  1.099617E-03  1.099617E-03  4.999999E-03  9.999997E-07  9.999960E-04  1.776357E-21    1 
 2.350000E+01  5.000000E-01  5.000000E-01  2.034850E+05  9.972063E+02  8.117946E+00 -4.570599E-06  1.099617E-03  1.099617E-03  4.999998E-03  9.999997E-07  9.999961E-04  2.664535E-21    1 
 2.450000E+01  5.000000E-01  5.000000E-01  2.034568E+05  9.972063E+02  8.117946E+00 -4.570599E-06  1.099617E-03  1.099617E-03  4.999998E-03  9.999997E-07  9.999962E-04 -2.664535E-21    1 
 2.550000E+01  5.000000E-01  5.000000E-01  2.034285E+05  9.972063E+02  8.117946E+00 -4.570599E-06  1.099617E-03  1.099617E-03  4.999998E-03  9.999997E-07  9.999963E-04 -1.776357E-21    1 
 2.650000E+01  5.000000E-01  5.000000E-01  2.034003E+05  9.972063E+02  8.117946E+00 -4.570599E-06  1.099617E-03  1.099617E-03  4.999998E-03  9.999997E-07  9.999963E-04  8.881784E-22    1 
 2.750000E+01  5.000000E-01  5.000000E-01  2.033721E+05  9.972063E+02  8.117946E+00 -4.570599E-06  1.099617E-03  1.099617E-03  4.999998E-03  9.999996E-07  9.999964E-04 -1.776357E-21    1 
 2.850000E+01  5.000000E-01  5.000000E-01  2.033438E+05  9.972063E+02  8.117946E+00 -4.570599E-06  1.099617E-03  1.099617E-03  4.999998E-03  9.999996E-07  9.999965E-04 -0.000000E+00    1 
 2.950000E+01  5.000000E-01  5.000000E-01  2.033156E+05  9.972063E+02  8.117946E+00 -4.570599E-06  1.099617E-03  1.099617E-03  4.999998E-03  9.999996E-07  9.999965E-04  8.881784E-22    1 
 3.050000E+01  5.000000E-01  5.000000E-01  2.032874E+05  9.972062E+02  8.117946E+00 -4.570599E-06  1.099617E-03  1.099617E-03  4.999998E-03  9.999996E-07  9.999966E-04 -1.776357E-21    1 
 3.150000E+01  5.000000E-01  5.000000E-01  2.032591E+05  9.972062E+02  8.117946E+00 -4.570599E-06  1.099617E-03  1.099617E-03  4.999998E-03  9.999996E-07  9.999967E-04 -0.000000E+00    1 
 3.250000E+01  5.000000E-01  5.000000E-01  2.032309E+05  9.972062E+02  8.117946E+00 -4.570599E-06  1.099617E-03  1.099617E-03  4.999998E-03  9.999996E-07  9.999967E-04 -1.776357E-21    1 
 3.350000E+01  5.000000E-01  5.000000E-01  2.032026E+05  9.972062E+02  8.117946E+00 -4.570599E-06  1.099617E-03  1.099617E-03  4.999998E-03  9.999996E-07  9.999968E-04 -6.217249E-21    1 
 3.450000E+01  5.000000E-01  5.000000E-01  2.031744E+05  9.972062E+02  8.117946E+00 -4.570599E-06  1.099617E-03  1.099617E-03  4.999998E-03  9.999996E-07  9.999968E-04 -1.065814E-20    1 
 3.550000E+01  5.000000E-01  5.000000E-01  2.031462E+05  9.972062E+02  8.117946E+00 -4.570599E-06  1.099617E-03  1.099617E-03  4.999998E-03  9.999995E-07  9.999968E-04 -2.398082E-20    1 
 3.650000E+01  5.000000E-01  5.000000E-01  2.031179E+05  9.972062E+02  8.117946E+00 -4.570598E-06  1.099617E-03  1.099617E-03  4.999998E-03  9.999995E-07  9.999969E-04 -4.263256E-20    1 
 3.750000E+01  5.000000E-01  5.000000E-01  2.030897E+05  9.972062E+02  8.117946E+00 -4.570598E-06  1.099617E-03  1.099617E-03  4.999997E-03  9.999995E-07  9.999969E-04 -7.727152E-20    1 
 3.850000E+01  5.000000E-01  5.000000E-01  2.030615E+05  9.972061E+02  8.117946E+00 -4.570598E-06  1.099617E-03  1.099617E-03  4.999997E-03  9.999994E-07  9.999970E-04 -1.385558E-19    1 
 3.950000E+01  5.000000E-01  5.000000E-01  2.030332E+05  9.972061E+02  8.117946E+00 -4.570597E-06  1.099617E-03  1.099617E-03  4.999997E-03  9.999994E-07  9.999970E-04 -2.433609E-19    1 
 4.050000E+01  5.000000E-01  5.000000E-01  2.030050E+05  9.972061E+02  8.117946E+00 -4.570597E-06  1.099617E-03  1.099617E-03  4.999996E-03  9.999993E-07  9.999970E-04 -4.263256E-19    1 
 4.150000E+01  5.000000E-01  5.000000E-01  2.029768E+05  9.972061E+02  8.117946E+00 -4.570595E-06  1.099617E-03  1.099617E-03  4.999996E-03  9.999991E-07  9.999971E-04 -7.212009E-19    1 
 4.250000E+01  5.000000E-01  5.000000E-01  2.029485E+05  9.972061E+02  8.117946E+00 -4.570593E-06  1.099617E-03  1.099617E-03  4.999994E-03  9.999989E-07  9.999971E-04 -1.203482E-18    1 
 4.350000E+01  5.000000E-01  5.000000E-01  2.029203E+05  9.972061E+02  8.117946E+00 -4.570590E-06  1.099616E-03  1.099617E-03  4.999992E-03  9.999984E-07  9.999971E-04 -1.975309E-18    1 
 4.450000E+01  5.000000E-01  5.000000E-01  2.028921E+05  9.972061E+02  8.117946E+00 -4.570585E-06  1.099616E-03  1.099616E-03  4.999989E-03  9.999978E-07  9.999972E-04 -3.200995E-18    1 
 4.550000E+01  5.000000E-01  5.000000E-01  2.028638E+05  9.972061E+02  8.117946E+00 -4.570576E-06  1.099616E-03  1.099616E-03  4.999984E-03  9.999967E-07  9.999972E-04 -5.100809E-18    1 
 4.650000E+01  5.000000E-01  5.000000E-01  2.028356E+05  9.972060E+02  8.117946E+00 -4.570563E-06  1.099616E-03  1.099616E-03  4.999976E-03  9.999950E-07  9.999972E-04 -8.013146E-18    1 
 4.750000E+01  5.000000E-01  5.000000E-01  2.028074E+05  9.972060E+02  8.117946E+00 -4.570542E-06  1.099616E-03  1.099616E-03  4.999963E-03  9.999924E-07  9.999973E-04 -1.239719E-17    1 
 4.850000E+01  5.000000E-01  5.000000E-01  2.027791E+05  9.972060E+02  8.117945E+00 -4.570510E-06  1.099615E-03  1.099615E-03  4.999943E-03  9.999884E-07  9.999973E-04 -1.892353E-17    1 
 4.950000E+01  5.000000E-01  5.000000E-01  2.027509E+05  9.972060E+02  8.117945E+00 -4.570462E-06  1.099615E-03  1.099615E-03  4.999914E-03  9.999824E-07  9.999973E-04 -2.848477E-17    1 
 5.050000E+01  5.000000E-01  5.000000E-01  2.027226E+05  9.972060E+02  8.117944E+00 -4.570390E-06  1.099614E-03  1.099614E-03  4.999870E-03  9.999734E-07  9.999974E-04 -4.231193E-17    1 
 5.150000E+01  5.000000E-01  5.000000E-01  2.026944E+05  9.972060E+02  8.117944E+00 -4.570284E-06  1.099613E-03  1.099612E-03  4.999805E-03  9.999602E-07  9.999974E-04 -6.204015E-17    1 
 5.250000E+01  5.000000E-01  5.000000E-01  2.026662E+05  9.972060E+02  8.117942E+00 -4.570131E-06  1.099611E-03  1.099610E-03  4.999711E-03  9.999410E-07  9.999974E-04 -8.983037E-17    1 
 5.350000E+01  5.000000E-01  5.000000E-01  2.026379E+05  9.972060E+02  8.117941E+00 -4.569911E-06  1.099608E-03  1.099607E-03  4.999576E-03  9.999135E-07  9.999974E-04 -1.284706E-16    1 
 5.450000E+01  5.000000E-01  5.000000E-01  2.026097E+05  9.972059E+02  8.117938E+00 -4.569600E-06  1.099604E-03  1.099603E-03  4.999384E-03  9.998744E-07  9.999975E-04 -1.815526E-16    1 
 5.550000E+01  5.000000E-01  5.000000E-01  2.025815E+05  9.972059E+02  8.117935E+00 -4.569164E-06  1.099599E-03  1.099597E-03  4.999115E-03  9.998196E-07  9.999975E-04 -2.535891E-16    1 
 5.650000E+01  5.000000E-01  5.000000E-01  2.025532E+05  9.972059E+02  8.117930E+00 -4.568561E-06  1.099592E-03  1.099588E-03  4.998743E-03  9.997437E-07  9.999975E-04 -3.502079E-16    1 
 5.750000E+01  5.000000E-01  5.000000E-01  2.025250E+05  9.972059E+02  8.117924E+00 -4.567736E-06  1.099582E-03  1.099577E-03  4.998233E-03  9.996397E-07  9.999975E-04 -4.783249E-16    1 
 5.850000E+01  5.000000E-01  5.000000E-01  2.024968E+05  9.972059E+02  8.117915E+00 -4.566618E-06  1.099568E-03  1.099561E-03  4.997541E-03  9.994987E-07  9.999975E-04 -6.463194E-16    1 
 5.950000E+01  5.000000E-01  5.000000E-01  2.024685E+05  9.972059E+02  8.117904E+00 -4.565120E-06  1.099550E-03  1.099540E-03  4.996614E-03  9.993096E-07  9.999976E-04 -8.642402E-16    1 
 6.050000E+01  5.000000E-01  5.000000E-01  2.024403E+05  9.972059E+02  8.117888E+00 -4.563135E-06  1.099526E-03  1.099512E-03  4.995383E-03  9.990588E-07  9.999976E-04 -1.143964E-15    1 
 6.150000E+01  5.000000E-01  5.000000E-01  2.024121E+05  9.972059E+02  8.117868E+00 -4.560531E-06  1.099494E-03  1.099476E-03  4.993767E-03  9.987292E-07  9.999976E-04 -1.499382E-15    1 
 6.250000E+01  5.000000E-01  5.000000E-01  2.023838E+05  9.972058E+02  8.117842E+00 -4.557148E-06  1.099453E-03  1.099428E-03  4.991665E-03  9.983008E-07  9.999976E-04 -1.946552E-15    1 
 6.350000E+01  5.000000E-01  5.000000E-01  2.023556E+05  9.972058E+02  8.117809E+00 -4.552795E-06  1.099399E-03  1.099367E-03  4.988959E-03  9.977491E-07  9.999976E-04 -2.503841E-15    1 
 6.450000E+01  5.000000E-01  5.000000E-01  2.023274E+05  9.972058E+02  8.117766E+00 -4.547247E-06  1.099332E-03  1.099289E-03  4.985508E-03  9.970455E-07  9.999976E-04 -3.192044E-15    1 
 6.550000E+01  5.000000E-01  5.000000E-01  2.022991E+05  9.972058E+02  8.117712E+00 -4.540244E-06  1.099246E-03  1.099191E-03  4.981148E-03  9.961565E-07  9.999976E-04 -4.034470E-15    1 
 6.650000E+01  5.000000E-01  5.000000E-01  2.022709E+05  9.972058E+02  8.117645E+00 -4.531482E-06  1.099139E-03  1.099067E-03  4.975690E-03  9.950437E-07  9.999977E-04 -5.057046E-15    1 
 6.750000E+01  5.000000E-01  5.000000E-01  2.022426E+05  9.972058E+02  8.117561E+00 -4.520616E-06  1.099006E-03  1.098915E-03  4.968919E-03  9.936632E-07  9.999977E-04 -6.288336E-15    1 
 6.850000E+01  5.000000E-01  5.000000E-01  2.022144E+05  9.972058E+02  8.117458E+00 -4.507258E-06  1.098842E-03  1.098727E-03  4.960592E-03  9.919657E-07  9.999977E-04 -7.759578E-15    1 
 6.950000E+01  5.000000E-01  5.000000E-01  2.021862E+05  9.972058E+02  8.117332E+00 -4.490975E-06  1.098643E-03  1.098497E-03  4.950442E-03  9.898962E-07  9.999977E-04 -9.504677E-15    1 
 7.050000E+01  5.000000E-01  5.000000E-01  2.021579E+05  9.972057E+02  8.117180E+00 -4.471288E-06  1.098402E-03  1.098220E-03  4.938172E-03  9.873946E-07  9.999977E-04 -1.156015E-14    1 
 7.150000E+01  5.000000E-01  5.000000E-01  2.021297E+05  9.972057E+02  8.116998E+00 -4.447678E-06  1.098113E-03  1.097888E-03  4.923463E-03  9.843958E-07  9.999977E-04 -1.396505E-14    1 
 7.250000E+01  5.000000E-01  5.000000E-01  2.021015E+05  9.972057E+02  8.116780E+00 -4.419584E-06  1.097769E-03  1.097493E-03  4.905973E-03  9.808301E-07  9.999977E-04 -1.676074E-14    1 
 7.350000E+01  5.000000E-01  5.000000E-01  2.020732E+05  9.972057E+02  8.116522E+00 -4.386411E-06  1.097364E-03  1.097027E-03  4.885343E-03  9.766240E-07  9.999977E-04 -1.999068E-14    1 
 7.450000E+01  5.000000E-01  5.000000E-01  2.020450E+05  9.972057E+02  8.116220E+00 -4.347531E-06  1.096890E-03  1.096482E-03  4.861198E-03  9.717014E-07  9.999977E-04 -2.370002E-14    1 
 7.550000E+01  5.000000E-01  5.000000E-01  2.020168E+05  9.972057E+02  8.115866E+00 -4.302293E-06  1.096339E-03  1.095849E-03  4.833156E-03  9.659842E-07  9.999976E-04 -2.793502E-14    1 
 7.650000E+01  5.000000E-01  5.000000E-01  2.019885E+05  9.972057E+02  8.115457E+00 -4.250029E-06  1.095703E-03  1.095118E-03  4.800833E-03  9.593943E-07  9.999976E-04 -3.274239E-14    1 
 7.750000E+01  5.000000E-01  5.000000E-01  2.019603E+05  9.972056E+02  8.114985E+00 -4.190063E-06  1.094976E-03  1.094283E-03  4.763850E-03  9.518545E-07  9.999976E-04 -3.816826E-14    1 
 7.850000E+01  5.000000E-01  5.000000E-01  2.019321E+05  9.972056E+02  8.114445E+00 -4.121721E-06  1.094150E-03  1.093333E-03  4.721844E-03  9.432903E-07  9.999976E-04 -4.425711E-14    1 
 7.950000E+01  5.000000E-01  5.000000E-01  2.019038E+05  9.972056E+02  8.113829E+00 -4.044341E-06  1.093219E-03  1.092262E-03  4.674471E-03  9.336319E-07  9.999976E-04 -5.105027E-14    1 
 8.050000E+01  5.000000E-01  5.000000E-01  2.018756E+05  9.972056E+02  8.113133E+00 -3.957282E-06  1.092175E-03  1.091063E-03  4.621418E-03  9.228156E-07  9.999975E-04 -5.858436E-14    1 
 8.150000E+01  5.000000E-01  5.000000E-01  2.018474E+05  9.972056E+02  8.112349E+00 -3.859940E-06  1.091013E-03  1.089728E-03  4.562413E-03  9.107859E-07  9.999975E-04 -6.688936E-14    1 
 8.250000E+01  5.000000E-01  5.000000E-01  2.018191E+05  9.972056E+02  8.111471E+00 -3.751753E-06  1.089729E-03  1.088252E-03  4.497231E-03  8.974968E-07  9.999975E-04 -7.598660E-14    1 
 8.350000E+01  5.000000E-01  5.000000E-01  2.017909E+05  9.972056E+02  8.110493E+00 -3.632216E-06  1.088319E-03  1.086633E-03  4.425704E-03  8.829140E-07  9.999975E-04 -8.588663E-14    1 
 8.450000E+01  5.000000E-01  5.000000E-01  2.017626E+05  9.972056E+02  8.109409E+00 -3.500892E-06  1.086782E-03  1.084866E-03  4.347724E-03  8.670156E-07  9.999974E-04 -9.658690E-14    1 
 8.550000E+01  5.000000E-01  5.000000E-01  2.017344E+05  9.972055E+02  8.108213E+00 -3.357418E-06  1.085115E-03  1.082951E-03  4.263255E-03  8.497942E-07  9.999974E-04 -1.080696E-13    1 
 8.650000E+01  5.000000E-01  5.000000E-01  2.017062E+05  9.972055E+02  8.106899E+00 -3.201519E-06  1.083319E-03  1.080888E-03  4.172332E-03  8.312572E-07  9.999974E-04 -1.202996E-13    1 
 8.750000E+01  5.000000E-01  5.000000E-01  2.016779E+05  9.972055E+02  8.105463E+00 -3.033011E-06  1.081396E-03  1.078679E-03  4.075069E-03  8.114275E-07  9.999973E-04 -1.332224E-13    1 
 8.850000E+01  5.000000E-01  5.000000E-01  2.016497E+05  9.972055E+02  8.103900E+00 -2.851812E-06  1.079350E-03  1.076329E-03  3.971658E-03  7.903443E-07  9.999973E-04 -1.467627E-13    1 
 8.950000E+01  5.000000E-01  5.000000E-01  2.016215E+05  9.972055E+02  8.102207E+00 -2.657949E-06  1.077185E-03  1.073843E-03  3.862369E-03  7.680627E-07  9.999973E-04 -1.608229E-13    1 
 9.050000E+01  5.000000E-01  5.000000E-01  2.015932E+05  9.972055E+02  8.100381E+00 -2.451557E-06  1.074907E-03  1.071228E-03  3.747549E-03  7.446534E-07  9.999973E-04 -1.752828E-13    1 
 9.150000E+01  5.000000E-01  5.000000E-01  2.015650E+05  9.972055E+02  8.098419E+00 -2.232887E-06  1.072525E-03  1.068494E-03  3.627616E-03  7.202019E-07  9.999973E-04 -1.899991E-13    1 
 9.250000E+01  5.000000E-01  5.000000E-01  2.015368E+05  9.972055E+02  8.096321E+00 -2.002308E-06  1.070048E-03  1.065651E-03  3.503060E-03  6.948076E-07  9.999973E-04 -2.048063E-13    1 
 9.350000E+01  5.000000E-01  5.000000E-01  2.015085E+05  9.972054E+02  8.094087E+00 -1.760302E-06  1.067486E-03  1.062711E-03  3.374427E-03  6.685823E-07  9.999973E-04 -2.195179E-13    1 
 9.450000E+01  5.000000E-01  5.000000E-01  2.014803E+05  9.972054E+02  8.091719E+00 -1.507469E-06  1.064851E-03  1.059688E-03  3.242319E-03  6.416485E-07  9.999973E-04 -2.339287E-13    1 
 9.550000E+01  5.000000E-01  5.000000E-01  2.014521E+05  9.972054E+02  8.089219E+00 -1.244521E-06  1.062154E-03  1.056595E-03  3.107382E-03  6.141377E-07  9.999973E-04 -2.478178E-13    1 
 9.650000E+01  5.000000E-01  5.000000E-01  2.014238E+05  9.972054E+02  8.086592E+00 -9.722792E-07  1.059409E-03  1.053447E-03  2.970292E-03  5.861882E-07  9.999973E-04 -2.609528E-13    1 
 9.750000E+01  5.000000E-01  5.000000E-01  2.013956E+05  9.972054E+02  8.083843E+00 -6.916677E-07  1.056630E-03  1.050261E-03  2.831751E-03  5.579427E-07  9.999973E-04 -2.730946E-13    1 
 9.850000E+01  5.000000E-01  5.000000E-01  2.013674E+05  9.972054E+02  8.080980E+00 -4.037231E-07  1.053830E-03  1.047052E-03  2.692478E-03  5.295483E-07  9.999973E-04 -2.839793E-13    1 
 9.950000E+01  5.000000E-01  5.000000E-01  2.013391E+05  9.972054E+02  8.078034E+00 -1.118084E-07  1.051044E-03  1.043861E-03  2.554245E-03  5.013657E-07  9.999974E-04 -2.909212E-13    1 
