TITLE = "  2.00000E+01 [y]"
VARIABLES="X [m]","Y [m]","Z [m]","Liquid Pressure [Pa]","Liquid Density [kg/m^3]","pH","Total H+ [M]","Total HCO3- [M]","Total Ca++ [M]","Total SO4-- [M]","Total UO2++ [M]","Calcite VF [m^3 mnrl/m^3 bulk]","Calcite Rate [mol/m^3/sec]","Material ID"
ZONE T="2.00000E+01", STRANDID=1, SOLUTIONTIME=2.00000E+01, I=100, J=1, K=1, DATAPACKING=POINT
 5.000000E-01  5.000000E-01  5.000000E-01  2.041344E+05  9.972066E+02  8.103119E+00 -3.422189E-06  1.098469E-03  1.098469E-03  5.000000E-03  1.000000E-06  1.765504E-04 -3.534896E-08    1 
 1.500000E+00  5.000000E-01  5.000000E-01  2.041062E+05  9.972066E+02  8.117931E+00 -4.569428E-06  1.099616E-03  1.099616E-03  5.000000E-03  1.000000E-06  9.991437E-04 -3.666523E-11    1 
 2.500000E+00  5.000000E-01  5.000000E-01  2.040779E+05  9.972066E+02  8.117946E+00 -4.570599E-06  1.099617E-03  1.099617E-03  5.000000E-03  1.000000E-06  9.999972E-04 -3.743971E-14    1 
 3.500000E+00  5.000000E-01  5.000000E-01  2.040497E+05  9.972066E+02  8.117946E+00 -4.570600E-06  1.099617E-03  1.099617E-03  5.000000E-03  1.000000E-06  9.999979E-04 -3.822809E-17    1 
 4.500000E+00  5.000000E-01  5.000000E-01  2.040215E+05  9.972066E+02  8.117946E+00 -4.570600E-06  1.099617E-03  1.099617E-03  5.000000E-03  9.999999E-07  9.999972E-04 -3.996803E-20    1 
 5.500000E+00  5.000000E-01  5.000000E-01  2.039932E+05  9.972066E+02  8.117946E+00 -4.570600E-06  1.099617E-03  1.099617E-03  5.000000E-03  9.999999E-07  9.999963E-04 -1.776357E-21    1 
 6.500000E+00  5.000000E-01  5.000000E-01  2.039650E+05  9.972065E+02  8.117946E+00 -4.570600E-06  1.099617E-03  1.099617E-03  5.000000E-03  9.999999E-07  9.999956E-04 -8.881784E-22    1 
 7.500000E+00  5.000000E-01  5.000000E-01  2.039368E+05  9.972065E+02  8.117946E+00 -4.570600E-06  1.099617E-03  1.099617E-03  5.000000E-03  9.999999E-07  9.999951E-04  2.664535E-21    1 
 8.500000E+00  5.000000E-01  5.000000E-01  2.039085E+05  9.972065E+02  8.117946E+00 -4.570600E-06  1.099617E-03  1.099617E-03  4.999999E-03  9.999999E-07  9.999949E-04  8.881784E-22    1 
 9.500000E+00  5.000000E-01  5.000000E-01  2.038803E+05  9.972065E+02  8.117946E+00 -4.570600E-06  1.099617E-03  1.099617E-03  4.999999E-03  9.999999E-07  9.999947E-04  8.881784E-22    1 
 1.050000E+01  5.000000E-01  5.000000E-01  2.038521E+05  9.972065E+02  8.117946E+00 -4.570600E-06  1.099617E-03  1.099617E-03  4.999999E-03  9.999999E-07  9.999946E-04 -3.552714E-21    1 
 1.150000E+01  5.000000E-01  5.000000E-01  2.038238E+05  9.972065E+02  8.117946E+00 -4.570600E-06  1.099617E-03  1.099617E-03  4.999999E-03  9.999999E-07  9.999946E-04 -1.776357E-21    1 
 1.250000E+01  5.000000E-01  5.000000E-01  2.037956E+05  9.972065E+02  8.117946E+00 -4.570600E-06  1.099617E-03  1.099617E-03  4.999999E-03  9.999998E-07  9.999947E-04  8.881784E-22    1 
 1.350000E+01  5.000000E-01  5.000000E-01  2.037673E+05  9.972065E+02  8.117946E+00 -4.570600E-06  1.099617E-03  1.099617E-03  4.999999E-03  9.999998E-07  9.999948E-04 -3.552714E-21    1 
 1.450000E+01  5.000000E-01  5.000000E-01  2.037391E+05  9.972064E+02  8.117946E+00 -4.570600E-06  1.099617E-03  1.099617E-03  4.999999E-03  9.999998E-07  9.999949E-04  8.881784E-22    1 
 1.550000E+01  5.000000E-01  5.000000E-01  2.037109E+05  9.972064E+02  8.117946E+00 -4.570600E-06  1.099617E-03  1.099617E-03  4.999999E-03  9.999998E-07  9.999950E-04 -0.000000E+00    1 
 1.650000E+01  5.000000E-01  5.000000E-01  2.036826E+05  9.972064E+02  8.117946E+00 -4.570600E-06  1.099617E-03  1.099617E-03  4.999999E-03  9.999998E-07  9.999952E-04  1.776357E-21    1 
 1.750000E+01  5.000000E-01  5.000000E-01  2.036544E+05  9.972064E+02  8.117946E+00 -4.570600E-06  1.099617E-03  1.099617E-03  4.999999E-03  9.999998E-07  9.999953E-04 -1.776357E-21    1 
 1.850000E+01  5.000000E-01  5.000000E-01  2.036262E+05  9.972064E+02  8.117946E+00 -4.570600E-06  1.099617E-03  1.099617E-03  4.999999E-03  9.999998E-07  9.999955E-04 -8.881784E-22    1 
 1.950000E+01  5.000000E-01  5.000000E-01  2.035979E+05  9.972064E+02  8.117946E+00 -4.570600E-06  1.099617E-03  1.099617E-03  4.999999E-03  9.999998E-07  9.999956E-04  8.881784E-22    1 
 2.050000E+01  5.000000E-01  5.000000E-01  2.035697E+05  9.972064E+02  8.117946E+00 -4.570599E-06  1.099617E-03  1.099617E-03  4.999999E-03  9.999997E-07  9.999957E-04 -0.000000E+00    1 
 2.150000E+01  5.000000E-01  5.000000E-01  2.035415E+05  9.972064E+02  8.117946E+00 -4.570599E-06  1.099617E-03  1.099617E-03  4.999999E-03  9.999997E-07  9.999959E-04 -0.000000E+00    1 
 2.250000E+01  5.000000E-01  5.000000E-01  2.035132E+05  9.972063E+02  8.117946E+00 -4.570599E-06  1.099617E-03  1.099617E-03  4.999999E-03  9.999997E-07  9.999960E-04 -8.881784E-22    1 
 2.350000E+01  5.000000E-01  5.000000E-01  2.034850E+05  9.972063E+02  8.117946E+00 -4.570599E-06  1.099617E-03  1.099617E-03  4.999998E-03  9.999997E-07  9.999961E-04  8.881784E-22    1 
 2.450000E+01  5.000000E-01  5.000000E-01  2.034568E+05  9.972063E+02  8.117946E+00 -4.570599E-06  1.099617E-03  1.099617E-03  4.999998E-03  9.999997E-07  9.999962E-04 -1.776357E-21    1 
 2.550000E+01  5.000000E-01  5.000000E-01  2.034285E+05  9.972063E+02  8.117946E+00 -4.570599E-06  1.099617E-03  1.099617E-03  4.999998E-03  9.999996E-07  9.999963E-04 -1.776357E-21    1 
 2.650000E+01  5.000000E-01  5.000000E-01  2.034003E+05  9.972063E+02  8.117946E+00 -4.570598E-06  1.099617E-03  1.099617E-03  4.999998E-03  9.999996E-07  9.999963E-04  8.881784E-22    1 
 2.750000E+01  5.000000E-01  5.000000E-01  2.033721E+05  9.972063E+02  8.117946E+00 -4.570598E-06  1.099617E-03  1.099617E-03  4.999998E-03  9.999995E-07  9.999964E-04 -2.664535E-21    1 
 2.850000E+01  5.000000E-01  5.000000E-01  2.033438E+05  9.972063E+02  8.117946E+00 -4.570596E-06  1.099617E-03  1.099617E-03  4.999997E-03  9.999994E-07  9.999965E-04  1.776357E-21    1 
 2.950000E+01  5.000000E-01  5.000000E-01  2.033156E+05  9.972063E+02  8.117946E+00 -4.570594E-06  1.099617E-03  1.099617E-03  4.999996E-03  9.999991E-07  9.999965E-04 -8.881784E-22    1 
 3.050000E+01  5.000000E-01  5.000000E-01  2.032874E+05  9.972062E+02  8.117946E+00 -4.570589E-06  1.099617E-03  1.099617E-03  4.999993E-03  9.999986E-07  9.999966E-04 -2.664535E-21    1 
 3.150000E+01  5.000000E-01  5.000000E-01  2.032591E+05  9.972062E+02  8.117946E+00 -4.570582E-06  1.099617E-03  1.099617E-03  4.999989E-03  9.999978E-07  9.999967E-04  1.776357E-21    1 
 3.250000E+01  5.000000E-01  5.000000E-01  2.032309E+05  9.972062E+02  8.117946E+00 -4.570568E-06  1.099616E-03  1.099616E-03  4.999983E-03  9.999965E-07  9.999967E-04  8.881784E-22    1 
 3.350000E+01  5.000000E-01  5.000000E-01  2.032026E+05  9.972062E+02  8.117946E+00 -4.570546E-06  1.099616E-03  1.099616E-03  4.999971E-03  9.999941E-07  9.999968E-04 -1.776357E-21    1 
 3.450000E+01  5.000000E-01  5.000000E-01  2.031744E+05  9.972062E+02  8.117945E+00 -4.570509E-06  1.099616E-03  1.099616E-03  4.999952E-03  9.999902E-07  9.999968E-04 -4.440892E-21    1 
 3.550000E+01  5.000000E-01  5.000000E-01  2.031462E+05  9.972062E+02  8.117945E+00 -4.570450E-06  1.099615E-03  1.099615E-03  4.999921E-03  9.999839E-07  9.999968E-04 -7.105427E-21    1 
 3.650000E+01  5.000000E-01  5.000000E-01  2.031179E+05  9.972062E+02  8.117944E+00 -4.570355E-06  1.099614E-03  1.099614E-03  4.999871E-03  9.999737E-07  9.999969E-04 -2.042810E-20    1 
 3.750000E+01  5.000000E-01  5.000000E-01  2.030897E+05  9.972062E+02  8.117943E+00 -4.570207E-06  1.099613E-03  1.099612E-03  4.999793E-03  9.999579E-07  9.999969E-04 -4.884981E-20    1 
 3.850000E+01  5.000000E-01  5.000000E-01  2.030615E+05  9.972061E+02  8.117941E+00 -4.569980E-06  1.099610E-03  1.099609E-03  4.999673E-03  9.999334E-07  9.999970E-04 -1.163514E-19    1 
 3.950000E+01  5.000000E-01  5.000000E-01  2.030332E+05  9.972061E+02  8.117938E+00 -4.569640E-06  1.099607E-03  1.099605E-03  4.999492E-03  9.998964E-07  9.999970E-04 -2.584599E-19    1 
 4.050000E+01  5.000000E-01  5.000000E-01  2.030050E+05  9.972061E+02  8.117934E+00 -4.569135E-06  1.099601E-03  1.099599E-03  4.999221E-03  9.998412E-07  9.999970E-04 -5.702105E-19    1 
 4.150000E+01  5.000000E-01  5.000000E-01  2.029768E+05  9.972061E+02  8.117928E+00 -4.568399E-06  1.099593E-03  1.099590E-03  4.998825E-03  9.997604E-07  9.999971E-04 -1.201705E-18    1 
 4.250000E+01  5.000000E-01  5.000000E-01  2.029485E+05  9.972061E+02  8.117920E+00 -4.567343E-06  1.099582E-03  1.099577E-03  4.998253E-03  9.996438E-07  9.999971E-04 -2.466471E-18    1 
 4.350000E+01  5.000000E-01  5.000000E-01  2.029203E+05  9.972061E+02  8.117908E+00 -4.565851E-06  1.099566E-03  1.099558E-03  4.997441E-03  9.994782E-07  9.999971E-04 -4.920508E-18    1 
 4.450000E+01  5.000000E-01  5.000000E-01  2.028921E+05  9.972061E+02  8.117891E+00 -4.563774E-06  1.099543E-03  1.099532E-03  4.996303E-03  9.992464E-07  9.999972E-04 -9.523049E-18    1 
 4.550000E+01  5.000000E-01  5.000000E-01  2.028638E+05  9.972061E+02  8.117868E+00 -4.560923E-06  1.099512E-03  1.099497E-03  4.994734E-03  9.989264E-07  9.999972E-04 -1.791900E-17    1 
 4.650000E+01  5.000000E-01  5.000000E-01  2.028356E+05  9.972060E+02  8.117837E+00 -4.557063E-06  1.099470E-03  1.099448E-03  4.992599E-03  9.984910E-07  9.999972E-04 -3.281109E-17    1 
 4.750000E+01  5.000000E-01  5.000000E-01  2.028074E+05  9.972060E+02  8.117796E+00 -4.551906E-06  1.099413E-03  1.099383E-03  4.989732E-03  9.979065E-07  9.999973E-04 -5.848566E-17    1 
 4.850000E+01  5.000000E-01  5.000000E-01  2.027791E+05  9.972060E+02  8.117742E+00 -4.545106E-06  1.099337E-03  1.099296E-03  4.985932E-03  9.971320E-07  9.999973E-04 -1.016023E-16    1 
 4.950000E+01  5.000000E-01  5.000000E-01  2.027509E+05  9.972060E+02  8.117671E+00 -4.536251E-06  1.099239E-03  1.099183E-03  4.980962E-03  9.961187E-07  9.999973E-04 -1.721272E-16    1 
 5.050000E+01  5.000000E-01  5.000000E-01  2.027226E+05  9.972060E+02  8.117581E+00 -4.524860E-06  1.099112E-03  1.099037E-03  4.974540E-03  9.948094E-07  9.999974E-04 -2.845972E-16    1 
 5.150000E+01  5.000000E-01  5.000000E-01  2.026944E+05  9.972060E+02  8.117466E+00 -4.510380E-06  1.098949E-03  1.098850E-03  4.966343E-03  9.931380E-07  9.999974E-04 -4.596172E-16    1 
 5.250000E+01  5.000000E-01  5.000000E-01  2.026662E+05  9.972060E+02  8.117321E+00 -4.492184E-06  1.098744E-03  1.098615E-03  4.956000E-03  9.910295E-07  9.999974E-04 -7.255316E-16    1 
 5.350000E+01  5.000000E-01  5.000000E-01  2.026379E+05  9.972060E+02  8.117141E+00 -4.469571E-06  1.098489E-03  1.098322E-03  4.943101E-03  9.883997E-07  9.999974E-04 -1.120285E-15    1 
 5.450000E+01  5.000000E-01  5.000000E-01  2.026097E+05  9.972059E+02  8.116920E+00 -4.441771E-06  1.098174E-03  1.097961E-03  4.927192E-03  9.851561E-07  9.999975E-04 -1.693264E-15    1 
 5.550000E+01  5.000000E-01  5.000000E-01  2.025815E+05  9.972059E+02  8.116651E+00 -4.407949E-06  1.097791E-03  1.097520E-03  4.907783E-03  9.811990E-07  9.999975E-04 -2.506977E-15    1 
 5.650000E+01  5.000000E-01  5.000000E-01  2.025532E+05  9.972059E+02  8.116326E+00 -4.367216E-06  1.097327E-03  1.096988E-03  4.884354E-03  9.764224E-07  9.999975E-04 -3.638356E-15    1 
 5.750000E+01  5.000000E-01  5.000000E-01  2.025250E+05  9.972059E+02  8.115938E+00 -4.318639E-06  1.096774E-03  1.096352E-03  4.856364E-03  9.707159E-07  9.999975E-04 -5.179456E-15    1 
 5.850000E+01  5.000000E-01  5.000000E-01  2.024968E+05  9.972059E+02  8.115479E+00 -4.261255E-06  1.096119E-03  1.095600E-03  4.823262E-03  9.639670E-07  9.999976E-04 -7.237288E-15    1 
 5.950000E+01  5.000000E-01  5.000000E-01  2.024685E+05  9.972059E+02  8.114939E+00 -4.194086E-06  1.095353E-03  1.094720E-03  4.784497E-03  9.560639E-07  9.999976E-04 -9.932609E-15    1 
 6.050000E+01  5.000000E-01  5.000000E-01  2.024403E+05  9.972059E+02  8.114311E+00 -4.116160E-06  1.094464E-03  1.093699E-03  4.739538E-03  9.468977E-07  9.999976E-04 -1.339742E-14    1 
 6.150000E+01  5.000000E-01  5.000000E-01  2.024121E+05  9.972059E+02  8.113585E+00 -4.026526E-06  1.093443E-03  1.092526E-03  4.687882E-03  9.363661E-07  9.999976E-04 -1.777122E-14    1 
 6.250000E+01  5.000000E-01  5.000000E-01  2.023838E+05  9.972058E+02  8.112752E+00 -3.924279E-06  1.092280E-03  1.091190E-03  4.629074E-03  9.243766E-07  9.999976E-04 -2.319584E-14    1 
 6.350000E+01  5.000000E-01  5.000000E-01  2.023556E+05  9.972058E+02  8.111803E+00 -3.808577E-06  1.090967E-03  1.089683E-03  4.562724E-03  9.108493E-07  9.999977E-04 -2.980906E-14    1 
 6.450000E+01  5.000000E-01  5.000000E-01  2.023274E+05  9.972058E+02  8.110729E+00 -3.678662E-06  1.089499E-03  1.087997E-03  4.488519E-03  8.957205E-07  9.999977E-04 -3.773726E-14    1 
 6.550000E+01  5.000000E-01  5.000000E-01  2.022991E+05  9.972058E+02  8.109522E+00 -3.533883E-06  1.087870E-03  1.086126E-03  4.406238E-03  8.789454E-07  9.999977E-04 -4.708720E-14    1 
 6.650000E+01  5.000000E-01  5.000000E-01  2.022709E+05  9.972058E+02  8.108175E+00 -3.373707E-06  1.086078E-03  1.084069E-03  4.315767E-03  8.605003E-07  9.999978E-04 -5.793749E-14    1 
 6.750000E+01  5.000000E-01  5.000000E-01  2.022426E+05  9.972058E+02  8.106678E+00 -3.197742E-06  1.084123E-03  1.081823E-03  4.217104E-03  8.403851E-07  9.999978E-04 -7.033009E-14    1 
 6.850000E+01  5.000000E-01  5.000000E-01  2.022144E+05  9.972058E+02  8.105027E+00 -3.005752E-06  1.082006E-03  1.079393E-03  4.110369E-03  8.186242E-07  9.999978E-04 -8.426232E-14    1 
 6.950000E+01  5.000000E-01  5.000000E-01  2.021862E+05  9.972058E+02  8.103214E+00 -2.797662E-06  1.079731E-03  1.076782E-03  3.995808E-03  7.952679E-07  9.999979E-04 -9.967976E-14    1 
 7.050000E+01  5.000000E-01  5.000000E-01  2.021579E+05  9.972057E+02  8.101237E+00 -2.573576E-06  1.077307E-03  1.073999E-03  3.873792E-03  7.703915E-07  9.999979E-04 -1.164706E-13    1 
 7.150000E+01  5.000000E-01  5.000000E-01  2.021297E+05  9.972057E+02  8.099091E+00 -2.333777E-06  1.074740E-03  1.071054E-03  3.744813E-03  7.440956E-07  9.999980E-04 -1.344620E-13    1 
 7.250000E+01  5.000000E-01  5.000000E-01  2.021015E+05  9.972057E+02  8.096776E+00 -2.078736E-06  1.072044E-03  1.067960E-03  3.609479E-03  7.165040E-07  9.999980E-04 -1.534183E-13    1 
 7.350000E+01  5.000000E-01  5.000000E-01  2.020732E+05  9.972057E+02  8.094290E+00 -1.809109E-06  1.069232E-03  1.064734E-03  3.468502E-03  6.877621E-07  9.999981E-04 -1.730419E-13    1 
 7.450000E+01  5.000000E-01  5.000000E-01  2.020450E+05  9.972057E+02  8.091637E+00 -1.525738E-06  1.066319E-03  1.061392E-03  3.322687E-03  6.580337E-07  9.999982E-04 -1.929775E-13    1 
 7.550000E+01  5.000000E-01  5.000000E-01  2.020168E+05  9.972057E+02  8.088821E+00 -1.229642E-06  1.063321E-03  1.057955E-03  3.172915E-03  6.274986E-07  9.999982E-04 -2.128185E-13    1 
 7.650000E+01  5.000000E-01  5.000000E-01  2.019885E+05  9.972057E+02  8.085847E+00 -9.220143E-07  1.060258E-03  1.054442E-03  3.020126E-03  5.963482E-07  9.999983E-04 -2.321169E-13    1 
 7.750000E+01  5.000000E-01  5.000000E-01  2.019603E+05  9.972056E+02  8.082725E+00 -6.042062E-07  1.057147E-03  1.050877E-03  2.865298E-03  5.647823E-07  9.999984E-04 -2.503966E-13    1 
 7.850000E+01  5.000000E-01  5.000000E-01  2.019321E+05  9.972056E+02  8.079465E+00 -2.777167E-07  1.054010E-03  1.047282E-03  2.709433E-03  5.330049E-07  9.999985E-04 -2.671690E-13    1 
 7.950000E+01  5.000000E-01  5.000000E-01  2.019038E+05  9.972056E+02  8.076082E+00  5.582558E-08  1.050864E-03  1.043678E-03  2.553530E-03  5.012199E-07  9.999986E-04 -2.819513E-13    1 
 8.050000E+01  5.000000E-01  5.000000E-01  2.018756E+05  9.972056E+02  8.072591E+00  3.946814E-07  1.047730E-03  1.040089E-03  2.398574E-03  4.696279E-07  9.999986E-04 -2.942869E-13    1 
 8.150000E+01  5.000000E-01  5.000000E-01  2.018474E+05  9.972056E+02  8.069010E+00  7.370228E-07  1.044627E-03  1.036537E-03  2.245512E-03  4.384219E-07  9.999987E-04 -3.037668E-13    1 
 8.250000E+01  5.000000E-01  5.000000E-01  2.018191E+05  9.972056E+02  8.065359E+00  1.080958E-06  1.041573E-03  1.033041E-03  2.095240E-03  4.077847E-07  9.999988E-04 -3.100508E-13    1 
 8.350000E+01  5.000000E-01  5.000000E-01  2.017909E+05  9.972056E+02  8.061660E+00  1.424556E-06  1.038584E-03  1.029621E-03  1.948586E-03  3.778852E-07  9.999989E-04 -3.128871E-13    1 
 8.450000E+01  5.000000E-01  5.000000E-01  2.017626E+05  9.972056E+02  8.057936E+00  1.765878E-06  1.035677E-03  1.026296E-03  1.806301E-03  3.488767E-07  9.999990E-04 -3.121296E-13    1 
 8.550000E+01  5.000000E-01  5.000000E-01  2.017344E+05  9.972055E+02  8.054211E+00  2.103006E-06  1.032864E-03  1.023080E-03  1.669051E-03  3.208945E-07  9.999991E-04 -3.077505E-13    1 
 8.650000E+01  5.000000E-01  5.000000E-01  2.017062E+05  9.972055E+02  8.050508E+00  2.434072E-06  1.030159E-03  1.019988E-03  1.537406E-03  2.940550E-07  9.999992E-04 -2.998465E-13    1 
 8.750000E+01  5.000000E-01  5.000000E-01  2.016779E+05  9.972055E+02  8.046853E+00  2.757292E-06  1.027571E-03  1.017031E-03  1.411838E-03  2.684544E-07  9.999993E-04 -2.886390E-13    1 
 8.850000E+01  5.000000E-01  5.000000E-01  2.016497E+05  9.972055E+02  8.043268E+00  3.070993E-06  1.025108E-03  1.014219E-03  1.292720E-03  2.441689E-07  9.999994E-04 -2.744660E-13    1 
 8.950000E+01  5.000000E-01  5.000000E-01  2.016215E+05  9.972055E+02  8.039776E+00  3.373645E-06  1.022779E-03  1.011559E-03  1.180328E-03  2.212547E-07  9.999995E-04 -2.577665E-13    1 
 9.050000E+01  5.000000E-01  5.000000E-01  2.015932E+05  9.972055E+02  8.036397E+00  3.663882E-06  1.020586E-03  1.009056E-03  1.074840E-03  1.997482E-07  9.999995E-04 -2.390587E-13    1 
 9.150000E+01  5.000000E-01  5.000000E-01  2.015650E+05  9.972055E+02  8.033151E+00  3.940529E-06  1.018533E-03  1.006714E-03  9.763474E-04  1.796677E-07  9.999996E-04 -2.189119E-13    1 
 9.250000E+01  5.000000E-01  5.000000E-01  2.015368E+05  9.972055E+02  8.030053E+00  4.202618E-06  1.016620E-03  1.004533E-03  8.848542E-04  1.610143E-07  9.999997E-04 -1.979162E-13    1 
 9.350000E+01  5.000000E-01  5.000000E-01  2.015085E+05  9.972054E+02  8.027116E+00  4.449399E-06  1.014848E-03  1.002512E-03  8.002894E-04  1.437734E-07  9.999997E-04 -1.766514E-13    1 
 9.450000E+01  5.000000E-01  5.000000E-01  2.014803E+05  9.972054E+02  8.024352E+00  4.680344E-06  1.013215E-03  1.000650E-03  7.225142E-04  1.279168E-07  9.999998E-04 -1.556577E-13    1 
 9.550000E+01  5.000000E-01  5.000000E-01  2.014521E+05  9.972054E+02  8.021767E+00  4.895152E-06  1.011716E-03  9.989424E-04  6.513304E-04  1.134040E-07  9.999998E-04 -1.354112E-13    1 
 9.650000E+01  5.000000E-01  5.000000E-01  2.014238E+05  9.972054E+02  8.019365E+00  5.093738E-06  1.010348E-03  9.973838E-04  5.864908E-04  1.001846E-07  9.999998E-04 -1.163055E-13    1 
 9.750000E+01  5.000000E-01  5.000000E-01  2.013956E+05  9.972054E+02  8.017149E+00  5.276222E-06  1.009105E-03  9.959684E-04  5.277074E-04  8.820003E-08  9.999999E-04 -9.864127E-14    1 
 9.850000E+01  5.000000E-01  5.000000E-01  2.013674E+05  9.972054E+02  8.015118E+00  5.442905E-06  1.007982E-03  9.946892E-04  4.746632E-04  7.738549E-08  9.999999E-04 -8.261648E-14    1 
 9.950000E+01  5.000000E-01  5.000000E-01  2.013391E+05  9.972054E+02  8.013278E+00  5.593332E-06  1.006977E-03  9.935456E-04  4.273088E-04  6.773099E-08  9.999999E-04 -6.777372E-14    1 
