TITLE = "  1.00000E+01 [y]"
VARIABLES="X [m]","Y [m]","Z [m]","Liquid Pressure [Pa]","Liquid Density [kg/m^3]","pH","Total H+ [M]","Total HCO3- [M]","Total Ca++ [M]","Total SO4-- [M]","Total UO2++ [M]","Calcite VF [m^3 mnrl/m^3 bulk]","Calcite Rate [mol/m^3/sec]","Material ID"
ZONE T="1.00000E+01", STRANDID=1, SOLUTIONTIME=1.00000E+01, I=100, J=1, K=1, DATAPACKING=POINT
 5.000000E-01  5.000000E-01  5.000000E-01  2.041344E+05  9.972066E+02  8.103119E+00 -3.422189E-06  1.098469E-03  1.098469E-03  5.000000E-03  1.000000E-06  5.882776E-04 -3.534896E-08    1 
 1.500000E+00  5.000000E-01  5.000000E-01  2.041062E+05  9.972066E+02  8.117931E+00 -4.569428E-06  1.099616E-03  1.099616E-03  5.000000E-03  1.000000E-06  9.995708E-04 -3.666523E-11    1 
 2.500000E+00  5.000000E-01  5.000000E-01  2.040779E+05  9.972066E+02  8.117946E+00 -4.570599E-06  1.099617E-03  1.099617E-03  5.000000E-03  1.000000E-06  9.999977E-04 -3.743970E-14    1 
 3.500000E+00  5.000000E-01  5.000000E-01  2.040497E+05  9.972066E+02  8.117946E+00 -4.570600E-06  1.099617E-03  1.099617E-03  5.000000E-03  1.000000E-06  9.999979E-04 -3.822986E-17    1 
 4.500000E+00  5.000000E-01  5.000000E-01  2.040215E+05  9.972066E+02  8.117946E+00 -4.570600E-06  1.099617E-03  1.099617E-03  5.000000E-03  9.999999E-07  9.999972E-04 -4.085621E-20    1 
 5.500000E+00  5.000000E-01  5.000000E-01  2.039932E+05  9.972066E+02  8.117946E+00 -4.570600E-06  1.099617E-03  1.099617E-03  4.999999E-03  9.999999E-07  9.999963E-04 -1.776357E-21    1 
 6.500000E+00  5.000000E-01  5.000000E-01  2.039650E+05  9.972065E+02  8.117946E+00 -4.570599E-06  1.099617E-03  1.099617E-03  4.999999E-03  9.999998E-07  9.999956E-04 -8.881784E-22    1 
 7.500000E+00  5.000000E-01  5.000000E-01  2.039368E+05  9.972065E+02  8.117946E+00 -4.570595E-06  1.099617E-03  1.099617E-03  4.999997E-03  9.999995E-07  9.999951E-04 -0.000000E+00    1 
 8.500000E+00  5.000000E-01  5.000000E-01  2.039085E+05  9.972065E+02  8.117946E+00 -4.570585E-06  1.099617E-03  1.099617E-03  4.999993E-03  9.999985E-07  9.999949E-04 -1.776357E-21    1 
 9.500000E+00  5.000000E-01  5.000000E-01  2.038803E+05  9.972065E+02  8.117946E+00 -4.570559E-06  1.099617E-03  1.099617E-03  4.999980E-03  9.999960E-07  9.999947E-04  8.881784E-22    1 
 1.050000E+01  5.000000E-01  5.000000E-01  2.038521E+05  9.972065E+02  8.117945E+00 -4.570494E-06  1.099616E-03  1.099616E-03  4.999950E-03  9.999898E-07  9.999946E-04 -9.769963E-21    1 
 1.150000E+01  5.000000E-01  5.000000E-01  2.038238E+05  9.972065E+02  8.117944E+00 -4.570349E-06  1.099615E-03  1.099614E-03  4.999880E-03  9.999756E-07  9.999946E-04 -4.884981E-20    1 
 1.250000E+01  5.000000E-01  5.000000E-01  2.037956E+05  9.972065E+02  8.117941E+00 -4.570041E-06  1.099612E-03  1.099611E-03  4.999731E-03  9.999452E-07  9.999947E-04 -2.140510E-19    1 
 1.350000E+01  5.000000E-01  5.000000E-01  2.037673E+05  9.972065E+02  8.117936E+00 -4.569429E-06  1.099606E-03  1.099604E-03  4.999430E-03  9.998839E-07  9.999948E-04 -8.553158E-19    1 
 1.450000E+01  5.000000E-01  5.000000E-01  2.037391E+05  9.972064E+02  8.117927E+00 -4.568275E-06  1.099594E-03  1.099591E-03  4.998855E-03  9.997667E-07  9.999949E-04 -3.017142E-18    1 
 1.550000E+01  5.000000E-01  5.000000E-01  2.037109E+05  9.972064E+02  8.117910E+00 -4.566203E-06  1.099573E-03  1.099567E-03  4.997811E-03  9.995536E-07  9.999950E-04 -9.689138E-18    1 
 1.650000E+01  5.000000E-01  5.000000E-01  2.036826E+05  9.972064E+02  8.117881E+00 -4.562651E-06  1.099537E-03  1.099525E-03  4.995997E-03  9.991839E-07  9.999952E-04 -2.836931E-17    1 
 1.750000E+01  5.000000E-01  5.000000E-01  2.036544E+05  9.972064E+02  8.117833E+00 -4.556814E-06  1.099477E-03  1.099456E-03  4.992981E-03  9.985690E-07  9.999953E-04 -7.636825E-17    1 
 1.850000E+01  5.000000E-01  5.000000E-01  2.036262E+05  9.972064E+02  8.117758E+00 -4.547592E-06  1.099380E-03  1.099346E-03  4.988160E-03  9.975861E-07  9.999955E-04 -1.901173E-16    1 
 1.950000E+01  5.000000E-01  5.000000E-01  2.035979E+05  9.972064E+02  8.117644E+00 -4.533543E-06  1.099232E-03  1.099176E-03  4.980734E-03  9.960721E-07  9.999956E-04 -4.402088E-16    1 
 2.050000E+01  5.000000E-01  5.000000E-01  2.035697E+05  9.972064E+02  8.117477E+00 -4.512853E-06  1.099012E-03  1.098923E-03  4.969683E-03  9.938191E-07  9.999957E-04 -9.528618E-16    1 
 2.150000E+01  5.000000E-01  5.000000E-01  2.035415E+05  9.972064E+02  8.117238E+00 -4.483333E-06  1.098696E-03  1.098560E-03  4.953764E-03  9.905735E-07  9.999959E-04 -1.937232E-15    1 
 2.250000E+01  5.000000E-01  5.000000E-01  2.035132E+05  9.972063E+02  8.116908E+00 -4.442438E-06  1.098254E-03  1.098052E-03  4.931517E-03  9.860378E-07  9.999960E-04 -3.715317E-15    1 
 2.350000E+01  5.000000E-01  5.000000E-01  2.034850E+05  9.972063E+02  8.116463E+00 -4.387324E-06  1.097653E-03  1.097364E-03  4.901305E-03  9.798782E-07  9.999961E-04 -6.748701E-15    1 
 2.450000E+01  5.000000E-01  5.000000E-01  2.034568E+05  9.972063E+02  8.115878E+00 -4.314932E-06  1.096861E-03  1.096454E-03  4.861369E-03  9.717364E-07  9.999962E-04 -1.165414E-14    1 
 2.550000E+01  5.000000E-01  5.000000E-01  2.034285E+05  9.972063E+02  8.115125E+00 -4.222105E-06  1.095840E-03  1.095282E-03  4.809913E-03  9.612456E-07  9.999963E-04 -1.919942E-14    1 
 2.650000E+01  5.000000E-01  5.000000E-01  2.034003E+05  9.972063E+02  8.114177E+00 -4.105717E-06  1.094556E-03  1.093808E-03  4.745196E-03  9.480512E-07  9.999964E-04 -3.027264E-14    1 
 2.750000E+01  5.000000E-01  5.000000E-01  2.033721E+05  9.972063E+02  8.113006E+00 -3.962821E-06  1.092979E-03  1.091996E-03  4.665646E-03  9.318328E-07  9.999964E-04 -4.582146E-14    1 
 2.850000E+01  5.000000E-01  5.000000E-01  2.033438E+05  9.972063E+02  8.111584E+00 -3.790795E-06  1.091081E-03  1.089818E-03  4.569971E-03  9.123268E-07  9.999965E-04 -6.676428E-14    1 
 2.950000E+01  5.000000E-01  5.000000E-01  2.033156E+05  9.972063E+02  8.109886E+00 -3.587479E-06  1.088845E-03  1.087251E-03  4.457264E-03  8.893484E-07  9.999966E-04 -9.388016E-14    1 
 3.050000E+01  5.000000E-01  5.000000E-01  2.032874E+05  9.972062E+02  8.107888E+00 -3.351299E-06  1.086261E-03  1.084284E-03  4.327088E-03  8.628085E-07  9.999967E-04 -1.276889E-13    1 
 3.150000E+01  5.000000E-01  5.000000E-01  2.032591E+05  9.972062E+02  8.105571E+00 -3.081363E-06  1.083329E-03  1.080920E-03  4.179542E-03  8.327272E-07  9.999968E-04 -1.683352E-13    1 
 3.250000E+01  5.000000E-01  5.000000E-01  2.032309E+05  9.972062E+02  8.102919E+00 -2.777541E-06  1.080063E-03  1.077171E-03  4.015290E-03  7.992399E-07  9.999969E-04 -2.154905E-13    1 
 3.350000E+01  5.000000E-01  5.000000E-01  2.032026E+05  9.972062E+02  8.099922E+00 -2.440501E-06  1.076484E-03  1.073064E-03  3.835559E-03  7.625967E-07  9.999970E-04 -2.682867E-13    1 
 3.450000E+01  5.000000E-01  5.000000E-01  2.031744E+05  9.972062E+02  8.096577E+00 -2.071730E-06  1.072626E-03  1.068638E-03  3.642101E-03  7.231550E-07  9.999971E-04 -3.252909E-13    1 
 3.550000E+01  5.000000E-01  5.000000E-01  2.031462E+05  9.972062E+02  8.092887E+00 -1.673518E-06  1.068531E-03  1.063940E-03  3.437128E-03  6.813657E-07  9.999973E-04 -3.845299E-13    1 
 3.650000E+01  5.000000E-01  5.000000E-01  2.031179E+05  9.972062E+02  8.088864E+00 -1.248916E-06  1.064248E-03  1.059029E-03  3.223216E-03  6.377538E-07  9.999974E-04 -4.435666E-13    1 
 3.750000E+01  5.000000E-01  5.000000E-01  2.030897E+05  9.972062E+02  8.084530E+00 -8.016730E-07  1.059833E-03  1.053967E-03  3.003194E-03  5.928962E-07  9.999976E-04 -4.996305E-13    1 
 3.850000E+01  5.000000E-01  5.000000E-01  2.030615E+05  9.972061E+02  8.079915E+00 -3.361456E-07  1.055342E-03  1.048821E-03  2.780024E-03  5.473970E-07  9.999978E-04 -5.497962E-13    1 
 3.950000E+01  5.000000E-01  5.000000E-01  2.030332E+05  9.972061E+02  8.075059E+00  1.428090E-07  1.050835E-03  1.043658E-03  2.556680E-03  5.018621E-07  9.999979E-04 -5.912028E-13    1 
 4.050000E+01  5.000000E-01  5.000000E-01  2.030050E+05  9.972061E+02  8.070011E+00  6.299600E-07  1.046368E-03  1.038543E-03  2.336029E-03  4.568764E-07  9.999981E-04 -6.212961E-13    1 
 4.150000E+01  5.000000E-01  5.000000E-01  2.029768E+05  9.972061E+02  8.064827E+00  1.119845E-06  1.041995E-03  1.033537E-03  2.120736E-03  4.129828E-07  9.999983E-04 -6.380743E-13    1 
 4.250000E+01  5.000000E-01  5.000000E-01  2.029485E+05  9.972061E+02  8.059570E+00  1.606927E-06  1.037764E-03  1.028697E-03  1.913173E-03  3.706654E-07  9.999985E-04 -6.403060E-13    1 
 4.350000E+01  5.000000E-01  5.000000E-01  2.029203E+05  9.972061E+02  8.054307E+00  2.085754E-06  1.033717E-03  1.024069E-03  1.715365E-03  3.303368E-07  9.999987E-04 -6.276907E-13    1 
 4.450000E+01  5.000000E-01  5.000000E-01  2.028921E+05  9.972061E+02  8.049104E+00  2.551129E-06  1.029890E-03  1.019694E-03  1.528946E-03  2.923301E-07  9.999989E-04 -6.009314E-13    1 
 4.550000E+01  5.000000E-01  5.000000E-01  2.028638E+05  9.972061E+02  8.044028E+00  2.998271E-06  1.026308E-03  1.015601E-03  1.355144E-03  2.568959E-07  9.999991E-04 -5.616975E-13    1 
 4.650000E+01  5.000000E-01  5.000000E-01  2.028356E+05  9.972060E+02  8.039140E+00  3.422965E-06  1.022991E-03  1.011813E-03  1.194787E-03  2.242026E-07  9.999992E-04 -5.124723E-13    1 
 4.750000E+01  5.000000E-01  5.000000E-01  2.028074E+05  9.972060E+02  8.034494E+00  3.821689E-06  1.019950E-03  1.008343E-03  1.048316E-03  1.943406E-07  9.999994E-04 -4.563010E-13    1 
 4.850000E+01  5.000000E-01  5.000000E-01  2.027791E+05  9.972060E+02  8.030136E+00  4.191710E-06  1.017190E-03  1.005194E-03  9.158290E-04  1.673294E-07  9.999995E-04 -3.964726E-13    1 
 4.950000E+01  5.000000E-01  5.000000E-01  2.027509E+05  9.972060E+02  8.026101E+00  4.531140E-06  1.014710E-03  1.002365E-03  7.971156E-04  1.431264E-07  9.999996E-04 -3.361854E-13    1 
 5.050000E+01  5.000000E-01  5.000000E-01  2.027226E+05  9.972060E+02  8.022413E+00  4.838949E-06  1.012501E-03  9.998461E-04  6.917123E-04  1.216370E-07  9.999997E-04 -2.782496E-13    1 
 5.150000E+01  5.000000E-01  5.000000E-01  2.026944E+05  9.972060E+02  8.019083E+00  5.114933E-06  1.010552E-03  9.976246E-04  5.989526E-04  1.027254E-07  9.999998E-04 -2.248703E-13    1 
 5.250000E+01  5.000000E-01  5.000000E-01  2.026662E+05  9.972060E+02  8.016113E+00  5.359641E-06  1.008847E-03  9.956824E-04  5.180183E-04  8.622466E-08  9.999998E-04 -1.775364E-13    1 
 5.350000E+01  5.000000E-01  5.000000E-01  2.026379E+05  9.972060E+02  8.013495E+00  5.574273E-06  1.007370E-03  9.939989E-04  4.479879E-04  7.194703E-08  9.999999E-04 -1.370171E-13    1 
 5.450000E+01  5.000000E-01  5.000000E-01  2.026097E+05  9.972059E+02  8.011213E+00  5.760550E-06  1.006099E-03  9.925520E-04  3.878808E-04  5.969253E-08  9.999999E-04 -1.034470E-13    1 
 5.550000E+01  5.000000E-01  5.000000E-01  2.025815E+05  9.972059E+02  8.009247E+00  5.920582E-06  1.005016E-03  9.913183E-04  3.366944E-04  4.925677E-08  9.999999E-04 -7.646767E-14    1 
 5.650000E+01  5.000000E-01  5.000000E-01  2.025532E+05  9.972059E+02  8.007569E+00  6.056726E-06  1.004100E-03  9.902749E-04  2.934363E-04  4.043738E-08  1.000000E-03 -5.539131E-14    1 
 5.750000E+01  5.000000E-01  5.000000E-01  2.025250E+05  9.972059E+02  8.006152E+00  6.171467E-06  1.003330E-03  9.893991E-04  2.571484E-04  3.303909E-08  1.000000E-03 -3.935582E-14    1 
 5.850000E+01  5.000000E-01  5.000000E-01  2.024968E+05  9.972059E+02  8.004965E+00  6.267307E-06  1.002689E-03  9.886693E-04  2.269264E-04  2.687749E-08  1.000000E-03 -2.745248E-14    1 
 5.950000E+01  5.000000E-01  5.000000E-01  2.024685E+05  9.972059E+02  8.003982E+00  6.346679E-06  1.002159E-03  9.880657E-04  2.019322E-04  2.178172E-08  1.000000E-03 -1.881714E-14    1 
 6.050000E+01  5.000000E-01  5.000000E-01  2.024403E+05  9.972059E+02  8.003173E+00  6.411878E-06  1.001724E-03  9.875699E-04  1.814020E-04  1.759607E-08  1.000000E-03 -1.268539E-14    1 
 6.150000E+01  5.000000E-01  5.000000E-01  2.024121E+05  9.972059E+02  8.002512E+00  6.465021E-06  1.001368E-03  9.871654E-04  1.646502E-04  1.418075E-08  1.000000E-03 -8.417631E-15    1 
 6.250000E+01  5.000000E-01  5.000000E-01  2.023838E+05  9.972058E+02  8.001978E+00  6.508017E-06  1.001080E-03  9.868376E-04  1.510695E-04  1.141194E-08  1.000000E-03 -5.502331E-15    1 
 6.350000E+01  5.000000E-01  5.000000E-01  2.023556E+05  9.972058E+02  8.001548E+00  6.542558E-06  1.000849E-03  9.865735E-04  1.401288E-04  9.181371E-09  1.000000E-03 -3.545542E-15    1 
 6.450000E+01  5.000000E-01  5.000000E-01  2.023274E+05  9.972058E+02  8.001205E+00  6.570120E-06  1.000663E-03  9.863622E-04  1.313687E-04  7.395396E-09  1.000000E-03 -2.253621E-15    1 
 6.550000E+01  5.000000E-01  5.000000E-01  2.022991E+05  9.972058E+02  8.000933E+00  6.591970E-06  1.000515E-03  9.861941E-04  1.243966E-04  5.973931E-09  1.000000E-03 -1.413834E-15    1 
 6.650000E+01  5.000000E-01  5.000000E-01  2.022709E+05  9.972058E+02  8.000719E+00  6.609184E-06  1.000399E-03  9.860612E-04  1.188798E-04  4.849163E-09  1.000000E-03 -8.759331E-16    1 
 6.750000E+01  5.000000E-01  5.000000E-01  2.022426E+05  9.972058E+02  8.000551E+00  6.622665E-06  1.000307E-03  9.859567E-04  1.145392E-04  3.964212E-09  1.000000E-03 -5.361764E-16    1 
 6.850000E+01  5.000000E-01  5.000000E-01  2.022144E+05  9.972058E+02  8.000420E+00  6.633161E-06  1.000235E-03  9.858749E-04  1.111430E-04  3.271800E-09  1.000000E-03 -3.244214E-16    1 
 6.950000E+01  5.000000E-01  5.000000E-01  2.021862E+05  9.972058E+02  8.000319E+00  6.641289E-06  1.000179E-03  9.858114E-04  1.085000E-04  2.732964E-09  1.000000E-03 -1.941043E-16    1 
 7.050000E+01  5.000000E-01  5.000000E-01  2.021579E+05  9.972057E+02  8.000241E+00  6.647547E-06  1.000136E-03  9.857622E-04  1.064541E-04  2.315852E-09  1.000000E-03 -1.148877E-16    1 
 7.150000E+01  5.000000E-01  5.000000E-01  2.021297E+05  9.972057E+02  8.000181E+00  6.652342E-06  1.000103E-03  9.857243E-04  1.048786E-04  1.994631E-09  1.000000E-03 -6.728840E-17    1 
 7.250000E+01  5.000000E-01  5.000000E-01  2.021015E+05  9.972057E+02  8.000136E+00  6.655996E-06  1.000077E-03  9.856953E-04  1.036713E-04  1.748500E-09  1.000000E-03 -3.901057E-17    1 
 7.350000E+01  5.000000E-01  5.000000E-01  2.020732E+05  9.972057E+02  8.000101E+00  6.658767E-06  1.000058E-03  9.856733E-04  1.027509E-04  1.560833E-09  1.000000E-03 -2.239631E-17    1 
 7.450000E+01  5.000000E-01  5.000000E-01  2.020450E+05  9.972057E+02  8.000075E+00  6.660859E-06  1.000043E-03  9.856565E-04  1.020524E-04  1.418432E-09  1.000000E-03 -1.273115E-17    1 
 7.550000E+01  5.000000E-01  5.000000E-01  2.020168E+05  9.972057E+02  8.000055E+00  6.662430E-06  1.000032E-03  9.856439E-04  1.015249E-04  1.310884E-09  1.000000E-03 -7.172929E-18    1 
 7.650000E+01  5.000000E-01  5.000000E-01  2.019885E+05  9.972057E+02  8.000041E+00  6.663605E-06  1.000024E-03  9.856343E-04  1.011283E-04  1.230034E-09  1.000000E-03 -4.001244E-18    1 
 7.750000E+01  5.000000E-01  5.000000E-01  2.019603E+05  9.972056E+02  8.000030E+00  6.664480E-06  1.000018E-03  9.856272E-04  1.008315E-04  1.169526E-09  1.000000E-03 -2.213341E-18    1 
 7.850000E+01  5.000000E-01  5.000000E-01  2.019321E+05  9.972056E+02  8.000022E+00  6.665129E-06  1.000013E-03  9.856219E-04  1.006104E-04  1.124442E-09  1.000000E-03 -1.214140E-18    1 
 7.950000E+01  5.000000E-01  5.000000E-01  2.019038E+05  9.972056E+02  8.000016E+00  6.665607E-06  1.000010E-03  9.856180E-04  1.004463E-04  1.090995E-09  1.000000E-03 -6.608047E-19    1 
 8.050000E+01  5.000000E-01  5.000000E-01  2.018756E+05  9.972056E+02  8.000012E+00  6.665959E-06  1.000007E-03  9.856151E-04  1.003251E-04  1.066285E-09  1.000000E-03 -3.552714E-19    1 
 8.150000E+01  5.000000E-01  5.000000E-01  2.018474E+05  9.972056E+02  8.000008E+00  6.666216E-06  1.000005E-03  9.856130E-04  1.002360E-04  1.048105E-09  1.000000E-03 -1.918465E-19    1 
 8.250000E+01  5.000000E-01  5.000000E-01  2.018191E+05  9.972056E+02  8.000006E+00  6.666404E-06  1.000004E-03  9.856114E-04  1.001706E-04  1.034784E-09  1.000000E-03 -1.012523E-19    1 
 8.350000E+01  5.000000E-01  5.000000E-01  2.017909E+05  9.972056E+02  8.000004E+00  6.666540E-06  1.000003E-03  9.856102E-04  1.001229E-04  1.025061E-09  1.000000E-03 -5.240253E-20    1 
 8.450000E+01  5.000000E-01  5.000000E-01  2.017626E+05  9.972056E+02  8.000003E+00  6.666639E-06  1.000002E-03  9.856094E-04  1.000883E-04  1.017993E-09  1.000000E-03 -2.753353E-20    1 
 8.550000E+01  5.000000E-01  5.000000E-01  2.017344E+05  9.972055E+02  8.000002E+00  6.666710E-06  1.000001E-03  9.856088E-04  1.000632E-04  1.012873E-09  1.000000E-03 -1.953993E-20    1 
 8.650000E+01  5.000000E-01  5.000000E-01  2.017062E+05  9.972055E+02  8.000002E+00  6.666761E-06  1.000001E-03  9.856083E-04  1.000450E-04  1.009179E-09  1.000000E-03 -7.993606E-21    1 
 8.750000E+01  5.000000E-01  5.000000E-01  2.016779E+05  9.972055E+02  8.000001E+00  6.666797E-06  1.000001E-03  9.856080E-04  1.000320E-04  1.006523E-09  1.000000E-03 -2.664535E-21    1 
 8.850000E+01  5.000000E-01  5.000000E-01  2.016497E+05  9.972055E+02  8.000001E+00  6.666823E-06  1.000001E-03  9.856078E-04  1.000227E-04  1.004620E-09  1.000000E-03 -3.552714E-21    1 
 8.950000E+01  5.000000E-01  5.000000E-01  2.016215E+05  9.972055E+02  8.000001E+00  6.666841E-06  1.000000E-03  9.856076E-04  1.000160E-04  1.003262E-09  1.000000E-03 -1.776357E-21    1 
 9.050000E+01  5.000000E-01  5.000000E-01  2.015932E+05  9.972055E+02  8.000000E+00  6.666854E-06  1.000000E-03  9.856075E-04  1.000113E-04  1.002296E-09  1.000000E-03 -0.000000E+00    1 
 9.150000E+01  5.000000E-01  5.000000E-01  2.015650E+05  9.972055E+02  8.000000E+00  6.666864E-06  1.000000E-03  9.856074E-04  1.000079E-04  1.001611E-09  1.000000E-03 -0.000000E+00    1 
 9.250000E+01  5.000000E-01  5.000000E-01  2.015368E+05  9.972055E+02  8.000000E+00  6.666870E-06  1.000000E-03  9.856073E-04  1.000055E-04  1.001127E-09  1.000000E-03 -1.776357E-21    1 
 9.350000E+01  5.000000E-01  5.000000E-01  2.015085E+05  9.972054E+02  8.000000E+00  6.666875E-06  1.000000E-03  9.856073E-04  1.000039E-04  1.000786E-09  1.000000E-03 -0.000000E+00    1 
 9.450000E+01  5.000000E-01  5.000000E-01  2.014803E+05  9.972054E+02  8.000000E+00  6.666878E-06  1.000000E-03  9.856072E-04  1.000027E-04  1.000546E-09  1.000000E-03  8.881784E-22    1 
 9.550000E+01  5.000000E-01  5.000000E-01  2.014521E+05  9.972054E+02  8.000000E+00  6.666880E-06  1.000000E-03  9.856072E-04  1.000019E-04  1.000379E-09  1.000000E-03 -1.776357E-21    1 
 9.650000E+01  5.000000E-01  5.000000E-01  2.014238E+05  9.972054E+02  8.000000E+00  6.666881E-06  1.000000E-03  9.856072E-04  1.000013E-04  1.000262E-09  1.000000E-03  1.776357E-21    1 
 9.750000E+01  5.000000E-01  5.000000E-01  2.013956E+05  9.972054E+02  8.000000E+00  6.666882E-06  1.000000E-03  9.856072E-04  1.000009E-04  1.000181E-09  1.000000E-03 -8.881784E-22    1 
 9.850000E+01  5.000000E-01  5.000000E-01  2.013674E+05  9.972054E+02  8.000000E+00  6.666883E-06  1.000000E-03  9.856071E-04  1.000006E-04  1.000124E-09  1.000000E-03 -1.776357E-21    1 
 9.950000E+01  5.000000E-01  5.000000E-01  2.013391E+05  9.972054E+02  8.000000E+00  6.666883E-06  1.000000E-03  9.856071E-04  1.000004E-04  1.000085E-09  1.000000E-03  1.660894E-19    1 
