TITLE = "  1.50000E+01 [y]"
VARIABLES="X [m]","Y [m]","Z [m]","Liquid Pressure [Pa]","Liquid Density [kg/m^3]","pH","Total H+ [M]","Total HCO3- [M]","Total Ca++ [M]","Total SO4-- [M]","Total UO2++ [M]","Calcite VF [m^3 mnrl/m^3 bulk]","Calcite Rate [mol/m^3/sec]","Material ID"
ZONE T="1.50000E+01", STRANDID=1, SOLUTIONTIME=1.50000E+01, I=100, J=1, K=1, DATAPACKING=POINT
 5.000000E-01  5.000000E-01  5.000000E-01  2.041344E+05  9.972066E+02  8.103119E+00 -3.422189E-06  1.098469E-03  1.098469E-03  5.000000E-03  1.000000E-06  3.824140E-04 -3.534896E-08    1 
 1.500000E+00  5.000000E-01  5.000000E-01  2.041062E+05  9.972066E+02  8.117931E+00 -4.569428E-06  1.099616E-03  1.099616E-03  5.000000E-03  1.000000E-06  9.993572E-04 -3.666523E-11    1 
 2.500000E+00  5.000000E-01  5.000000E-01  2.040779E+05  9.972066E+02  8.117946E+00 -4.570599E-06  1.099617E-03  1.099617E-03  5.000000E-03  1.000000E-06  9.999974E-04 -3.743971E-14    1 
 3.500000E+00  5.000000E-01  5.000000E-01  2.040497E+05  9.972066E+02  8.117946E+00 -4.570600E-06  1.099617E-03  1.099617E-03  5.000000E-03  1.000000E-06  9.999979E-04 -3.822898E-17    1 
 4.500000E+00  5.000000E-01  5.000000E-01  2.040215E+05  9.972066E+02  8.117946E+00 -4.570600E-06  1.099617E-03  1.099617E-03  5.000000E-03  9.999999E-07  9.999972E-04 -3.819167E-20    1 
 5.500000E+00  5.000000E-01  5.000000E-01  2.039932E+05  9.972066E+02  8.117946E+00 -4.570600E-06  1.099617E-03  1.099617E-03  5.000000E-03  9.999999E-07  9.999963E-04  1.776357E-21    1 
 6.500000E+00  5.000000E-01  5.000000E-01  2.039650E+05  9.972065E+02  8.117946E+00 -4.570600E-06  1.099617E-03  1.099617E-03  5.000000E-03  9.999999E-07  9.999956E-04 -2.664535E-21    1 
 7.500000E+00  5.000000E-01  5.000000E-01  2.039368E+05  9.972065E+02  8.117946E+00 -4.570600E-06  1.099617E-03  1.099617E-03  5.000000E-03  9.999999E-07  9.999951E-04  8.881784E-22    1 
 8.500000E+00  5.000000E-01  5.000000E-01  2.039085E+05  9.972065E+02  8.117946E+00 -4.570600E-06  1.099617E-03  1.099617E-03  4.999999E-03  9.999999E-07  9.999949E-04 -0.000000E+00    1 
 9.500000E+00  5.000000E-01  5.000000E-01  2.038803E+05  9.972065E+02  8.117946E+00 -4.570600E-06  1.099617E-03  1.099617E-03  4.999999E-03  9.999999E-07  9.999947E-04  3.552714E-21    1 
 1.050000E+01  5.000000E-01  5.000000E-01  2.038521E+05  9.972065E+02  8.117946E+00 -4.570600E-06  1.099617E-03  1.099617E-03  4.999999E-03  9.999999E-07  9.999946E-04 -8.881784E-22    1 
 1.150000E+01  5.000000E-01  5.000000E-01  2.038238E+05  9.972065E+02  8.117946E+00 -4.570600E-06  1.099617E-03  1.099617E-03  4.999999E-03  9.999999E-07  9.999946E-04 -1.776357E-21    1 
 1.250000E+01  5.000000E-01  5.000000E-01  2.037956E+05  9.972065E+02  8.117946E+00 -4.570600E-06  1.099617E-03  1.099617E-03  4.999999E-03  9.999998E-07  9.999947E-04  8.881784E-22    1 
 1.350000E+01  5.000000E-01  5.000000E-01  2.037673E+05  9.972065E+02  8.117946E+00 -4.570600E-06  1.099617E-03  1.099617E-03  4.999999E-03  9.999998E-07  9.999948E-04 -1.776357E-21    1 
 1.450000E+01  5.000000E-01  5.000000E-01  2.037391E+05  9.972064E+02  8.117946E+00 -4.570600E-06  1.099617E-03  1.099617E-03  4.999999E-03  9.999998E-07  9.999949E-04  1.776357E-21    1 
 1.550000E+01  5.000000E-01  5.000000E-01  2.037109E+05  9.972064E+02  8.117946E+00 -4.570599E-06  1.099617E-03  1.099617E-03  4.999999E-03  9.999997E-07  9.999950E-04 -2.664535E-21    1 
 1.650000E+01  5.000000E-01  5.000000E-01  2.036826E+05  9.972064E+02  8.117946E+00 -4.570598E-06  1.099617E-03  1.099617E-03  4.999998E-03  9.999996E-07  9.999952E-04  2.664535E-21    1 
 1.750000E+01  5.000000E-01  5.000000E-01  2.036544E+05  9.972064E+02  8.117946E+00 -4.570595E-06  1.099617E-03  1.099617E-03  4.999997E-03  9.999994E-07  9.999953E-04 -0.000000E+00    1 
 1.850000E+01  5.000000E-01  5.000000E-01  2.036262E+05  9.972064E+02  8.117946E+00 -4.570590E-06  1.099617E-03  1.099617E-03  4.999994E-03  9.999989E-07  9.999955E-04 -8.881784E-22    1 
 1.950000E+01  5.000000E-01  5.000000E-01  2.035979E+05  9.972064E+02  8.117946E+00 -4.570580E-06  1.099617E-03  1.099617E-03  4.999989E-03  9.999978E-07  9.999956E-04  8.881784E-22    1 
 2.050000E+01  5.000000E-01  5.000000E-01  2.035697E+05  9.972064E+02  8.117946E+00 -4.570560E-06  1.099617E-03  1.099617E-03  4.999979E-03  9.999958E-07  9.999957E-04 -1.776357E-21    1 
 2.150000E+01  5.000000E-01  5.000000E-01  2.035415E+05  9.972064E+02  8.117945E+00 -4.570522E-06  1.099616E-03  1.099616E-03  4.999961E-03  9.999920E-07  9.999959E-04 -2.664535E-21    1 
 2.250000E+01  5.000000E-01  5.000000E-01  2.035132E+05  9.972063E+02  8.117945E+00 -4.570453E-06  1.099615E-03  1.099615E-03  4.999926E-03  9.999849E-07  9.999960E-04 -1.243450E-20    1 
 2.350000E+01  5.000000E-01  5.000000E-01  2.034850E+05  9.972063E+02  8.117944E+00 -4.570331E-06  1.099614E-03  1.099614E-03  4.999864E-03  9.999723E-07  9.999961E-04 -3.286260E-20    1 
 2.450000E+01  5.000000E-01  5.000000E-01  2.034568E+05  9.972063E+02  8.117942E+00 -4.570121E-06  1.099612E-03  1.099611E-03  4.999756E-03  9.999504E-07  9.999962E-04 -1.012523E-19    1 
 2.550000E+01  5.000000E-01  5.000000E-01  2.034285E+05  9.972063E+02  8.117939E+00 -4.569770E-06  1.099608E-03  1.099607E-03  4.999575E-03  9.999134E-07  9.999963E-04 -2.779998E-19    1 
 2.650000E+01  5.000000E-01  5.000000E-01  2.034003E+05  9.972063E+02  8.117935E+00 -4.569198E-06  1.099602E-03  1.099600E-03  4.999279E-03  9.998529E-07  9.999963E-04 -7.309708E-19    1 
 2.750000E+01  5.000000E-01  5.000000E-01  2.033721E+05  9.972063E+02  8.117927E+00 -4.568291E-06  1.099593E-03  1.099590E-03  4.998804E-03  9.997562E-07  9.999964E-04 -1.835865E-18    1 
 2.850000E+01  5.000000E-01  5.000000E-01  2.033438E+05  9.972063E+02  8.117916E+00 -4.566889E-06  1.099578E-03  1.099573E-03  4.998064E-03  9.996053E-07  9.999965E-04 -4.383161E-18    1 
 2.950000E+01  5.000000E-01  5.000000E-01  2.033156E+05  9.972063E+02  8.117899E+00 -4.564769E-06  1.099556E-03  1.099547E-03  4.996937E-03  9.993756E-07  9.999965E-04 -9.994672E-18    1 
 3.050000E+01  5.000000E-01  5.000000E-01  2.032874E+05  9.972062E+02  8.117873E+00 -4.561637E-06  1.099522E-03  1.099508E-03  4.995260E-03  9.990336E-07  9.999966E-04 -2.178790E-17    1 
 3.150000E+01  5.000000E-01  5.000000E-01  2.032591E+05  9.972062E+02  8.117837E+00 -4.557105E-06  1.099474E-03  1.099453E-03  4.992816E-03  9.985353E-07  9.999967E-04 -4.549605E-17    1 
 3.250000E+01  5.000000E-01  5.000000E-01  2.032309E+05  9.972062E+02  8.117785E+00 -4.550684E-06  1.099404E-03  1.099373E-03  4.989328E-03  9.978242E-07  9.999967E-04 -9.122392E-17    1 
 3.350000E+01  5.000000E-01  5.000000E-01  2.032026E+05  9.972062E+02  8.117714E+00 -4.541762E-06  1.099307E-03  1.099262E-03  4.984448E-03  9.968293E-07  9.999968E-04 -1.758833E-16    1 
 3.450000E+01  5.000000E-01  5.000000E-01  2.031744E+05  9.972062E+02  8.117616E+00 -4.529596E-06  1.099174E-03  1.099109E-03  4.977750E-03  9.954638E-07  9.999968E-04 -3.266507E-16    1 
 3.550000E+01  5.000000E-01  5.000000E-01  2.031462E+05  9.972062E+02  8.117486E+00 -4.513301E-06  1.098995E-03  1.098904E-03  4.968725E-03  9.936237E-07  9.999968E-04 -5.853202E-16    1 
 3.650000E+01  5.000000E-01  5.000000E-01  2.031179E+05  9.972062E+02  8.117314E+00 -4.491852E-06  1.098758E-03  1.098631E-03  4.956776E-03  9.911875E-07  9.999969E-04 -1.013500E-15    1 
 3.750000E+01  5.000000E-01  5.000000E-01  2.030897E+05  9.972062E+02  8.117092E+00 -4.464081E-06  1.098450E-03  1.098277E-03  4.941223E-03  9.880166E-07  9.999969E-04 -1.698331E-15    1 
 3.850000E+01  5.000000E-01  5.000000E-01  2.030615E+05  9.972061E+02  8.116809E+00 -4.428690E-06  1.098055E-03  1.097824E-03  4.921309E-03  9.839567E-07  9.999970E-04 -2.758133E-15    1 
 3.950000E+01  5.000000E-01  5.000000E-01  2.030332E+05  9.972061E+02  8.116453E+00 -4.384267E-06  1.097558E-03  1.097254E-03  4.896213E-03  9.788401E-07  9.999970E-04 -4.347175E-15    1 
 4.050000E+01  5.000000E-01  5.000000E-01  2.030050E+05  9.972061E+02  8.116013E+00 -4.329314E-06  1.096942E-03  1.096545E-03  4.865064E-03  9.724897E-07  9.999970E-04 -6.658593E-15    1 
 4.150000E+01  5.000000E-01  5.000000E-01  2.029768E+05  9.972061E+02  8.115474E+00 -4.262271E-06  1.096188E-03  1.095679E-03  4.826972E-03  9.647235E-07  9.999971E-04 -9.924418E-15    1 
 4.250000E+01  5.000000E-01  5.000000E-01  2.029485E+05  9.972061E+02  8.114822E+00 -4.181561E-06  1.095278E-03  1.094635E-03  4.781047E-03  9.553605E-07  9.999971E-04 -1.441181E-14    1 
 4.350000E+01  5.000000E-01  5.000000E-01  2.029203E+05  9.972061E+02  8.114045E+00 -4.085627E-06  1.094198E-03  1.093394E-03  4.726440E-03  9.442273E-07  9.999972E-04 -2.041478E-14    1 
 4.450000E+01  5.000000E-01  5.000000E-01  2.028921E+05  9.972061E+02  8.113127E+00 -3.972980E-06  1.092929E-03  1.091938E-03  4.662371E-03  9.311651E-07  9.999972E-04 -2.824112E-14    1 
 4.550000E+01  5.000000E-01  5.000000E-01  2.028638E+05  9.972061E+02  8.112054E+00 -3.842239E-06  1.091460E-03  1.090251E-03  4.588168E-03  9.160367E-07  9.999972E-04 -3.819483E-14    1 
 4.650000E+01  5.000000E-01  5.000000E-01  2.028356E+05  9.972060E+02  8.110812E+00 -3.692182E-06  1.089779E-03  1.088321E-03  4.503299E-03  8.987339E-07  9.999973E-04 -5.055468E-14    1 
 4.750000E+01  5.000000E-01  5.000000E-01  2.028074E+05  9.972060E+02  8.109388E+00 -3.521788E-06  1.087879E-03  1.086139E-03  4.407406E-03  8.791833E-07  9.999973E-04 -6.555001E-14    1 
 4.850000E+01  5.000000E-01  5.000000E-01  2.027791E+05  9.972060E+02  8.107770E+00 -3.330270E-06  1.085757E-03  1.083702E-03  4.300327E-03  8.573524E-07  9.999974E-04 -8.333559E-14    1 
 4.950000E+01  5.000000E-01  5.000000E-01  2.027509E+05  9.972060E+02  8.105947E+00 -3.117117E-06  1.083411E-03  1.081009E-03  4.182120E-03  8.332527E-07  9.999974E-04 -1.039670E-13    1 
 5.050000E+01  5.000000E-01  5.000000E-01  2.027226E+05  9.972060E+02  8.103910E+00 -2.882117E-06  1.080849E-03  1.078068E-03  4.053072E-03  8.069428E-07  9.999975E-04 -1.273788E-13    1 
 5.150000E+01  5.000000E-01  5.000000E-01  2.026944E+05  9.972060E+02  8.101651E+00 -2.625377E-06  1.078078E-03  1.074888E-03  3.913704E-03  7.785287E-07  9.999976E-04 -1.533664E-13    1 
 5.250000E+01  5.000000E-01  5.000000E-01  2.026662E+05  9.972060E+02  8.099165E+00 -2.347342E-06  1.075114E-03  1.071486E-03  3.764763E-03  7.481629E-07  9.999976E-04 -1.815751E-13    1 
 5.350000E+01  5.000000E-01  5.000000E-01  2.026379E+05  9.972060E+02  8.096452E+00 -2.048796E-06  1.071974E-03  1.067883E-03  3.607208E-03  7.160411E-07  9.999977E-04 -2.114957E-13    1 
 5.450000E+01  5.000000E-01  5.000000E-01  2.026097E+05  9.972059E+02  8.093511E+00 -1.730861E-06  1.068679E-03  1.064104E-03  3.442190E-03  6.823977E-07  9.999978E-04 -2.424689E-13    1 
 5.550000E+01  5.000000E-01  5.000000E-01  2.025815E+05  9.972059E+02  8.090347E+00 -1.394994E-06  1.065256E-03  1.060178E-03  3.271019E-03  6.474998E-07  9.999979E-04 -2.736996E-13    1 
 5.650000E+01  5.000000E-01  5.000000E-01  2.025532E+05  9.972059E+02  8.086970E+00 -1.042964E-06  1.061732E-03  1.056137E-03  3.095130E-03  6.116399E-07  9.999980E-04 -3.042810E-13    1 
 5.750000E+01  5.000000E-01  5.000000E-01  2.025250E+05  9.972059E+02  8.083391E+00 -6.768349E-07  1.058136E-03  1.052014E-03  2.916041E-03  5.751277E-07  9.999981E-04 -3.332280E-13    1 
 5.850000E+01  5.000000E-01  5.000000E-01  2.024968E+05  9.972059E+02  8.079628E+00 -2.989309E-07  1.054498E-03  1.047846E-03  2.735317E-03  5.382821E-07  9.999982E-04 -3.595205E-13    1 
 5.950000E+01  5.000000E-01  5.000000E-01  2.024685E+05  9.972059E+02  8.075702E+00  8.819478E-08  1.050850E-03  1.043667E-03  2.554524E-03  5.014226E-07  9.999983E-04 -3.821545E-13    1 
 6.050000E+01  5.000000E-01  5.000000E-01  2.024403E+05  9.972059E+02  8.071638E+00  4.818043E-07  1.047222E-03  1.039512E-03  2.375192E-03  4.648607E-07  9.999984E-04 -4.001982E-13    1 
 6.150000E+01  5.000000E-01  5.000000E-01  2.024121E+05  9.972059E+02  8.067465E+00  8.790224E-07  1.043643E-03  1.035415E-03  2.198775E-03  4.288934E-07  9.999986E-04 -4.128508E-13    1 
 6.250000E+01  5.000000E-01  5.000000E-01  2.023838E+05  9.972058E+02  8.063215E+00  1.276888E-06  1.040140E-03  1.031406E-03  2.026624E-03  3.937955E-07  9.999987E-04 -4.194992E-13    1 
 6.350000E+01  5.000000E-01  5.000000E-01  2.023556E+05  9.972058E+02  8.058922E+00  1.672413E-06  1.036738E-03  1.027515E-03  1.859954E-03  3.598153E-07  9.999988E-04 -4.197678E-13    1 
 6.450000E+01  5.000000E-01  5.000000E-01  2.023274E+05  9.972058E+02  8.054624E+00  2.062641E-06  1.033460E-03  1.023766E-03  1.699829E-03  3.271694E-07  9.999990E-04 -4.135553E-13    1 
 6.550000E+01  5.000000E-01  5.000000E-01  2.022991E+05  9.972058E+02  8.050356E+00  2.444708E-06  1.030324E-03  1.020182E-03  1.547144E-03  2.960404E-07  9.999991E-04 -4.010548E-13    1 
 6.650000E+01  5.000000E-01  5.000000E-01  2.022709E+05  9.972058E+02  8.046157E+00  2.815906E-06  1.027346E-03  1.016779E-03  1.402619E-03  2.665750E-07  9.999992E-04 -3.827515E-13    1 
 6.750000E+01  5.000000E-01  5.000000E-01  2.022426E+05  9.972058E+02  8.042060E+00  3.173744E-06  1.024538E-03  1.013573E-03  1.266797E-03  2.388838E-07  9.999993E-04 -3.593977E-13    1 
 6.850000E+01  5.000000E-01  5.000000E-01  2.022144E+05  9.972058E+02  8.038099E+00  3.515998E-06  1.021910E-03  1.010572E-03  1.140045E-03  2.130420E-07  9.999994E-04 -3.319648E-13    1 
 6.950000E+01  5.000000E-01  5.000000E-01  2.021862E+05  9.972058E+02  8.034304E+00  3.840761E-06  1.019466E-03  1.007783E-03  1.022567E-03  1.890909E-07  9.999995E-04 -3.015758E-13    1 
 7.050000E+01  5.000000E-01  5.000000E-01  2.021579E+05  9.972057E+02  8.030701E+00  4.146483E-06  1.017210E-03  1.005209E-03  9.144125E-04  1.670406E-07  9.999996E-04 -2.694265E-13    1 
 7.150000E+01  5.000000E-01  5.000000E-01  2.021297E+05  9.972057E+02  8.027309E+00  4.431989E-06  1.015140E-03  1.002849E-03  8.154923E-04  1.468729E-07  9.999997E-04 -2.367018E-13    1 
 7.250000E+01  5.000000E-01  5.000000E-01  2.021015E+05  9.972057E+02  8.024145E+00  4.696499E-06  1.013254E-03  1.000699E-03  7.255973E-04  1.285454E-07  9.999997E-04 -2.044972E-13    1 
 7.350000E+01  5.000000E-01  5.000000E-01  2.020732E+05  9.972057E+02  8.021219E+00  4.939618E-06  1.011547E-03  9.987532E-04  6.444158E-04  1.119943E-07  9.999998E-04 -1.737548E-13    1 
 7.450000E+01  5.000000E-01  5.000000E-01  2.020450E+05  9.972057E+02  8.018537E+00  5.161324E-06  1.010011E-03  9.970032E-04  5.715530E-04  9.713916E-08  9.999998E-04 -1.452181E-13    1 
 7.550000E+01  5.000000E-01  5.000000E-01  2.020168E+05  9.972057E+02  8.016098E+00  5.361940E-06  1.008638E-03  9.954392E-04  5.065491E-04  8.388632E-08  9.999999E-04 -1.194102E-13    1 
 7.650000E+01  5.000000E-01  5.000000E-01  2.019885E+05  9.972057E+02  8.013899E+00  5.542089E-06  1.007418E-03  9.940499E-04  4.488977E-04  7.213248E-08  9.999999E-04 -9.663392E-14    1 
 7.750000E+01  5.000000E-01  5.000000E-01  2.019603E+05  9.972056E+02  8.011933E+00  5.702654E-06  1.006340E-03  9.928231E-04  3.980618E-04  6.176818E-08  9.999999E-04 -7.699130E-14    1 
 7.850000E+01  5.000000E-01  5.000000E-01  2.019321E+05  9.972056E+02  8.010188E+00  5.844723E-06  1.005394E-03  9.917462E-04  3.534888E-04  5.268075E-08  9.999999E-04 -6.041648E-14    1 
 7.950000E+01  5.000000E-01  5.000000E-01  2.019038E+05  9.972056E+02  8.008651E+00  5.969536E-06  1.004569E-03  9.908062E-04  3.146235E-04  4.475698E-08  1.000000E-03 -4.671595E-14    1 
 8.050000E+01  5.000000E-01  5.000000E-01  2.018756E+05  9.972056E+02  8.007306E+00  6.078435E-06  1.003852E-03  9.899904E-04  2.809190E-04  3.788537E-08  1.000000E-03 -3.561041E-14    1 
 8.150000E+01  5.000000E-01  5.000000E-01  2.018474E+05  9.972056E+02  8.006139E+00  6.172817E-06  1.003233E-03  9.892862E-04  2.518453E-04  3.195789E-08  1.000000E-03 -2.677341E-14    1 
 8.250000E+01  5.000000E-01  5.000000E-01  2.018191E+05  9.972056E+02  8.005133E+00  6.254091E-06  1.002702E-03  9.886816E-04  2.268971E-04  2.687152E-08  1.000000E-03 -1.986371E-14    1 
 8.350000E+01  5.000000E-01  5.000000E-01  2.017909E+05  9.972056E+02  8.004270E+00  6.323641E-06  1.002248E-03  9.881654E-04  2.055987E-04  2.252923E-08  1.000000E-03 -1.454993E-14    1 
 8.450000E+01  5.000000E-01  5.000000E-01  2.017626E+05  9.972056E+02  8.003536E+00  6.382802E-06  1.001863E-03  9.877267E-04  1.875072E-04  1.884079E-08  1.000000E-03 -1.052721E-14    1 
 8.550000E+01  5.000000E-01  5.000000E-01  2.017344E+05  9.972055E+02  8.002914E+00  6.432835E-06  1.001537E-03  9.873560E-04  1.722157E-04  1.572318E-08  1.000000E-03 -7.526956E-15    1 
 8.650000E+01  5.000000E-01  5.000000E-01  2.017062E+05  9.972055E+02  8.002391E+00  6.474911E-06  1.001263E-03  9.870441E-04  1.593532E-04  1.310081E-08  1.000000E-03 -5.320724E-15    1 
 8.750000E+01  5.000000E-01  5.000000E-01  2.016779E+05  9.972055E+02  8.001953E+00  6.510105E-06  1.001033E-03  9.867831E-04  1.485853E-04  1.090546E-08  1.000000E-03 -3.720046E-15    1 
 8.850000E+01  5.000000E-01  5.000000E-01  2.016497E+05  9.972055E+02  8.001589E+00  6.539388E-06  1.000842E-03  9.865656E-04  1.396128E-04  9.076182E-09  1.000000E-03 -2.573490E-15    1 
 8.950000E+01  5.000000E-01  5.000000E-01  2.016215E+05  9.972055E+02  8.001287E+00  6.563631E-06  1.000684E-03  9.863852E-04  1.321707E-04  7.558898E-09  1.000000E-03 -1.762182E-15    1 
 9.050000E+01  5.000000E-01  5.000000E-01  2.015932E+05  9.972055E+02  8.001038E+00  6.583603E-06  1.000553E-03  9.862364E-04  1.260256E-04  6.306055E-09  1.000000E-03 -1.194761E-15    1 
 9.150000E+01  5.000000E-01  5.000000E-01  2.015650E+05  9.972055E+02  8.000834E+00  6.599978E-06  1.000445E-03  9.861140E-04  1.209740E-04  5.276132E-09  1.000000E-03 -8.023200E-16    1 
 9.250000E+01  5.000000E-01  5.000000E-01  2.015368E+05  9.972055E+02  8.000667E+00  6.613342E-06  1.000357E-03  9.860139E-04  1.168392E-04  4.433137E-09  1.000000E-03 -5.337952E-16    1 
 9.350000E+01  5.000000E-01  5.000000E-01  2.015085E+05  9.972054E+02  8.000532E+00  6.624201E-06  1.000286E-03  9.859324E-04  1.134693E-04  3.746084E-09  1.000000E-03 -3.519487E-16    1 
 9.450000E+01  5.000000E-01  5.000000E-01  2.014803E+05  9.972054E+02  8.000423E+00  6.632984E-06  1.000228E-03  9.858662E-04  1.107342E-04  3.188472E-09  1.000000E-03 -2.300249E-16    1 
 9.550000E+01  5.000000E-01  5.000000E-01  2.014521E+05  9.972054E+02  8.000334E+00  6.640059E-06  1.000181E-03  9.858128E-04  1.085236E-04  2.737778E-09  1.000000E-03 -1.490550E-16    1 
 9.650000E+01  5.000000E-01  5.000000E-01  2.014238E+05  9.972054E+02  8.000264E+00  6.645734E-06  1.000143E-03  9.857697E-04  1.067441E-04  2.374975E-09  1.000000E-03 -9.578205E-17    1 
 9.750000E+01  5.000000E-01  5.000000E-01  2.013956E+05  9.972054E+02  8.000207E+00  6.650267E-06  1.000113E-03  9.857353E-04  1.053173E-04  2.084085E-09  1.000000E-03 -6.105072E-17    1 
 9.850000E+01  5.000000E-01  5.000000E-01  2.013674E+05  9.972054E+02  8.000162E+00  6.653875E-06  1.000088E-03  9.857078E-04  1.041779E-04  1.851773E-09  1.000000E-03 -3.860468E-17    1 
 9.950000E+01  5.000000E-01  5.000000E-01  2.013391E+05  9.972054E+02  8.000127E+00  6.656720E-06  1.000069E-03  9.856860E-04  1.032757E-04  1.667852E-09  1.000000E-03 -2.391420E-17    1 
