TITLE = "  5.00000E+00 [y]"
VARIABLES="X [m]","Y [m]","Z [m]","Liquid Pressure [Pa]","Liquid Density [kg/m^3]","pH","Total H+ [M]","Total HCO3- [M]","Total Ca++ [M]","Total SO4-- [M]","Total UO2++ [M]","Calcite VF [m^3 mnrl/m^3 bulk]","Calcite Rate [mol/m^3/sec]","Material ID"
ZONE T="5.00000E+00", STRANDID=1, SOLUTIONTIME=5.00000E+00, I=100, J=1, K=1, DATAPACKING=POINT
 5.000000E-01  5.000000E-01  5.000000E-01  2.041344E+05  9.972066E+02  8.103119E+00 -3.422183E-06  1.098469E-03  1.098469E-03  4.999997E-03  9.999993E-07  7.941412E-04 -3.534896E-08    1 
 1.500000E+00  5.000000E-01  5.000000E-01  2.041062E+05  9.972066E+02  8.117930E+00 -4.569368E-06  1.099615E-03  1.099615E-03  4.999964E-03  9.999927E-07  9.997843E-04 -3.667214E-11    1 
 2.500000E+00  5.000000E-01  5.000000E-01  2.040779E+05  9.972066E+02  8.117943E+00 -4.570250E-06  1.099613E-03  1.099612E-03  4.999791E-03  9.999575E-07  9.999979E-04 -7.447632E-14    1 
 3.500000E+00  5.000000E-01  5.000000E-01  2.040497E+05  9.972066E+02  8.117935E+00 -4.569159E-06  1.099600E-03  1.099598E-03  4.999135E-03  9.998237E-07  9.999979E-04 -1.400997E-13    1 
 4.500000E+00  5.000000E-01  5.000000E-01  2.040215E+05  9.972066E+02  8.117910E+00 -4.565915E-06  1.099561E-03  1.099553E-03  4.997174E-03  9.994238E-07  9.999972E-04 -4.165740E-13    1 
 5.500000E+00  5.000000E-01  5.000000E-01  2.039932E+05  9.972066E+02  8.117847E+00 -4.557861E-06  1.099465E-03  1.099442E-03  4.992276E-03  9.984252E-07  9.999963E-04 -1.034232E-12    1 
 6.500000E+00  5.000000E-01  5.000000E-01  2.039650E+05  9.972065E+02  8.117713E+00 -4.540517E-06  1.099257E-03  1.099203E-03  4.981679E-03  9.962648E-07  9.999955E-04 -2.226308E-12    1 
 7.500000E+00  5.000000E-01  5.000000E-01  2.039368E+05  9.972065E+02  8.117455E+00 -4.507278E-06  1.098856E-03  1.098742E-03  4.961298E-03  9.921095E-07  9.999950E-04 -4.266678E-12    1 
 8.500000E+00  5.000000E-01  5.000000E-01  2.039085E+05  9.972065E+02  8.117006E+00 -4.449483E-06  1.098157E-03  1.097940E-03  4.925789E-03  9.848701E-07  9.999946E-04 -7.424213E-12    1 
 9.500000E+00  5.000000E-01  5.000000E-01  2.038803E+05  9.972065E+02  8.116284E+00 -4.356935E-06  1.097040E-03  1.096655E-03  4.868949E-03  9.732817E-07  9.999943E-04 -1.190849E-11    1 
 1.050000E+01  5.000000E-01  5.000000E-01  2.038521E+05  9.972065E+02  8.115198E+00 -4.218833E-06  1.095377E-03  1.094744E-03  4.784411E-03  9.560463E-07  9.999940E-04 -1.782211E-11    1 
 1.150000E+01  5.000000E-01  5.000000E-01  2.038238E+05  9.972065E+02  8.113656E+00 -4.024918E-06  1.093057E-03  1.092077E-03  4.666536E-03  9.320142E-07  9.999937E-04 -2.513152E-11    1 
 1.250000E+01  5.000000E-01  5.000000E-01  2.037956E+05  9.972065E+02  8.111569E+00 -3.766649E-06  1.089999E-03  1.088564E-03  4.511316E-03  9.003684E-07  9.999935E-04 -3.366103E-11    1 
 1.350000E+01  5.000000E-01  5.000000E-01  2.037673E+05  9.972065E+02  8.108859E+00 -3.438199E-06  1.086168E-03  1.084162E-03  4.317105E-03  8.607730E-07  9.999933E-04 -4.310740E-11    1 
 1.450000E+01  5.000000E-01  5.000000E-01  2.037391E+05  9.972064E+02  8.105464E+00 -3.037151E-06  1.081581E-03  1.078893E-03  4.085026E-03  8.134574E-07  9.999932E-04 -5.306853E-11    1 
 1.550000E+01  5.000000E-01  5.000000E-01  2.037109E+05  9.972064E+02  8.101348E+00 -2.564834E-06  1.076310E-03  1.072841E-03  3.819000E-03  7.592208E-07  9.999931E-04 -6.307868E-11    1 
 1.650000E+01  5.000000E-01  5.000000E-01  2.036826E+05  9.972064E+02  8.096501E+00 -2.026317E-06  1.070476E-03  1.066145E-03  3.525390E-03  6.993602E-07  9.999931E-04 -7.264441E-11    1 
 1.750000E+01  5.000000E-01  5.000000E-01  2.036544E+05  9.972064E+02  8.090947E+00 -1.430114E-06  1.064234E-03  1.058983E-03  3.212355E-03  6.355394E-07  9.999931E-04 -8.127797E-11    1 
 1.850000E+01  5.000000E-01  5.000000E-01  2.036262E+05  9.972064E+02  8.084749E+00 -7.876578E-07  1.057760E-03  1.051559E-03  2.889041E-03  5.696230E-07  9.999933E-04 -8.852732E-11    1 
 1.950000E+01  5.000000E-01  5.000000E-01  2.035979E+05  9.972064E+02  8.078006E+00 -1.126148E-07  1.051236E-03  1.044082E-03  2.564738E-03  5.035049E-07  9.999935E-04 -9.400346E-11    1 
 2.050000E+01  5.000000E-01  5.000000E-01  2.035697E+05  9.972064E+02  8.070855E+00  5.799067E-07  1.044832E-03  1.036749E-03  2.248121E-03  4.389538E-07  9.999938E-04 -9.740623E-11    1 
 2.150000E+01  5.000000E-01  5.000000E-01  2.035415E+05  9.972064E+02  8.063461E+00  1.274210E-06  1.038701E-03  1.029732E-03  1.946660E-03  3.774929E-07  9.999942E-04 -9.854858E-11    1 
 2.250000E+01  5.000000E-01  5.000000E-01  2.035132E+05  9.972063E+02  8.056007E+00  1.954885E-06  1.032962E-03  1.023170E-03  1.666245E-03  3.203225E-07  9.999946E-04 -9.737726E-11    1 
 2.350000E+01  5.000000E-01  5.000000E-01  2.034850E+05  9.972063E+02  8.048680E+00  2.607662E-06  1.027706E-03  1.017164E-03  1.411014E-03  2.682865E-07  9.999951E-04 -9.398564E-11    1 
 2.450000E+01  5.000000E-01  5.000000E-01  2.034568E+05  9.972063E+02  8.041658E+00  3.220187E-06  1.022988E-03  1.011777E-03  1.183374E-03  2.218759E-07  9.999956E-04 -8.861324E-11    1 
 2.550000E+01  5.000000E-01  5.000000E-01  2.034285E+05  9.972063E+02  8.035094E+00  3.782653E-06  1.018832E-03  1.007037E-03  9.841678E-04  1.812622E-07  9.999962E-04 -8.162759E-11    1 
 2.650000E+01  5.000000E-01  5.000000E-01  2.034003E+05  9.972063E+02  8.029105E+00  4.288227E-06  1.015238E-03  1.002939E-03  8.129285E-04  1.463504E-07  9.999967E-04 -7.348783E-11    1 
 2.750000E+01  5.000000E-01  5.000000E-01  2.033721E+05  9.972063E+02  8.023770E+00  4.733208E-06  1.012183E-03  9.994586E-04  6.681794E-04  1.168393E-07  9.999972E-04 -6.469460E-11    1 
 2.850000E+01  5.000000E-01  5.000000E-01  2.033438E+05  9.972063E+02  8.019126E+00  5.116908E-06  1.009627E-03  9.965488E-04  5.477421E-04  9.228478E-08  9.999977E-04 -5.573554E-11    1 
 2.950000E+01  5.000000E-01  5.000000E-01  2.033156E+05  9.972063E+02  8.015169E+00  5.441275E-06  1.007522E-03  9.941538E-04  4.490172E-04  7.215697E-08  9.999981E-04 -4.703709E-11    1 
 3.050000E+01  5.000000E-01  5.000000E-01  2.032874E+05  9.972062E+02  8.011867E+00  5.710342E-06  1.005813E-03  9.922112E-04  3.692236E-04  5.588880E-08  9.999984E-04 -3.893132E-11    1 
 3.150000E+01  5.000000E-01  5.000000E-01  2.032591E+05  9.972062E+02  8.009165E+00  5.929572E-06  1.004446E-03  9.906572E-04  3.055860E-04  4.291451E-08  9.999987E-04 -3.164178E-11    1 
 3.250000E+01  5.000000E-01  5.000000E-01  2.032309E+05  9.972062E+02  8.006992E+00  6.105218E-06  1.003367E-03  9.894304E-04  2.554715E-04  3.269725E-08  9.999990E-04 -2.528689E-11    1 
 3.350000E+01  5.000000E-01  5.000000E-01  2.032026E+05  9.972062E+02  8.005273E+00  6.243755E-06  1.002525E-03  9.884740E-04  2.164773E-04  2.474720E-08  9.999992E-04 -1.989588E-11    1 
 3.450000E+01  5.000000E-01  5.000000E-01  2.031744E+05  9.972062E+02  8.003934E+00  6.351445E-06  1.001876E-03  9.877372E-04  1.864803E-04  1.863146E-08  9.999994E-04 -1.543107E-11    1 
 3.550000E+01  5.000000E-01  5.000000E-01  2.031462E+05  9.972062E+02  8.002906E+00  6.434038E-06  1.001382E-03  9.871758E-04  1.636537E-04  1.397762E-08  9.999995E-04 -1.181094E-11    1 
 3.650000E+01  5.000000E-01  5.000000E-01  2.031179E+05  9.972062E+02  8.002126E+00  6.496598E-06  1.001009E-03  9.867527E-04  1.464623E-04  1.047266E-08  9.999997E-04 -8.930395E-12    1 
 3.750000E+01  5.000000E-01  5.000000E-01  2.030897E+05  9.972062E+02  8.001542E+00  6.543439E-06  1.000731E-03  9.864369E-04  1.336421E-04  7.858889E-09  9.999997E-04 -6.676482E-12    1 
 3.850000E+01  5.000000E-01  5.000000E-01  2.030615E+05  9.972061E+02  8.001109E+00  6.578138E-06  1.000525E-03  9.862036E-04  1.241712E-04  5.927972E-09  9.999998E-04 -4.939254E-12    1 
 3.950000E+01  5.000000E-01  5.000000E-01  2.030332E+05  9.972061E+02  8.000791E+00  6.603585E-06  1.000375E-03  9.860327E-04  1.172372E-04  4.514293E-09  9.999999E-04 -3.618382E-12    1 
 4.050000E+01  5.000000E-01  5.000000E-01  2.030050E+05  9.972061E+02  8.000560E+00  6.622074E-06  1.000266E-03  9.859086E-04  1.122042E-04  3.488172E-09  9.999999E-04 -2.626466E-12    1 
 4.150000E+01  5.000000E-01  5.000000E-01  2.029768E+05  9.972061E+02  8.000394E+00  6.635390E-06  1.000187E-03  9.858193E-04  1.085810E-04  2.749473E-09  9.999999E-04 -1.890016E-12    1 
 4.250000E+01  5.000000E-01  5.000000E-01  2.029485E+05  9.972061E+02  8.000275E+00  6.644901E-06  1.000131E-03  9.857555E-04  1.059932E-04  2.221871E-09  9.999999E-04 -1.348964E-12    1 
 4.350000E+01  5.000000E-01  5.000000E-01  2.029203E+05  9.972061E+02  8.000191E+00  6.651640E-06  1.000091E-03  9.857103E-04  1.041588E-04  1.847885E-09  1.000000E-03 -9.553397E-13    1 
 4.450000E+01  5.000000E-01  5.000000E-01  2.028921E+05  9.972061E+02  8.000131E+00  6.656380E-06  1.000063E-03  9.856785E-04  1.028680E-04  1.584708E-09  1.000000E-03 -6.715837E-13    1 
 4.550000E+01  5.000000E-01  5.000000E-01  2.028638E+05  9.972061E+02  8.000090E+00  6.659691E-06  1.000043E-03  9.856562E-04  1.019659E-04  1.400798E-09  1.000000E-03 -4.687850E-13    1 
 4.650000E+01  5.000000E-01  5.000000E-01  2.028356E+05  9.972060E+02  8.000061E+00  6.661987E-06  1.000030E-03  9.856408E-04  1.013398E-04  1.273139E-09  1.000000E-03 -3.250210E-13    1 
 4.750000E+01  5.000000E-01  5.000000E-01  2.028074E+05  9.972060E+02  8.000041E+00  6.663570E-06  1.000020E-03  9.856301E-04  1.009079E-04  1.185097E-09  1.000000E-03 -2.238903E-13    1 
 4.850000E+01  5.000000E-01  5.000000E-01  2.027791E+05  9.972060E+02  8.000028E+00  6.664653E-06  1.000014E-03  9.856228E-04  1.006120E-04  1.124754E-09  1.000000E-03 -1.532701E-13    1 
 4.950000E+01  5.000000E-01  5.000000E-01  2.027509E+05  9.972060E+02  8.000019E+00  6.665391E-06  1.000010E-03  9.856178E-04  1.004103E-04  1.083642E-09  1.000000E-03 -1.042995E-13    1 
 5.050000E+01  5.000000E-01  5.000000E-01  2.027226E+05  9.972060E+02  8.000012E+00  6.665890E-06  1.000007E-03  9.856145E-04  1.002737E-04  1.055794E-09  1.000000E-03 -7.056792E-14    1 
 5.150000E+01  5.000000E-01  5.000000E-01  2.026944E+05  9.972060E+02  8.000008E+00  6.666226E-06  1.000005E-03  9.856122E-04  1.001817E-04  1.037034E-09  1.000000E-03 -4.748141E-14    1 
 5.250000E+01  5.000000E-01  5.000000E-01  2.026662E+05  9.972060E+02  8.000005E+00  6.666451E-06  1.000003E-03  9.856107E-04  1.001201E-04  1.024466E-09  1.000000E-03 -3.177728E-14    1 
 5.350000E+01  5.000000E-01  5.000000E-01  2.026379E+05  9.972060E+02  8.000004E+00  6.666601E-06  1.000002E-03  9.856096E-04  1.000790E-04  1.016088E-09  1.000000E-03 -2.115767E-14    1 
 5.450000E+01  5.000000E-01  5.000000E-01  2.026097E+05  9.972059E+02  8.000002E+00  6.666700E-06  1.000002E-03  9.856089E-04  1.000517E-04  1.010532E-09  1.000000E-03 -1.401695E-14    1 
 5.550000E+01  5.000000E-01  5.000000E-01  2.025815E+05  9.972059E+02  8.000002E+00  6.666766E-06  1.000001E-03  9.856085E-04  1.000337E-04  1.006865E-09  1.000000E-03 -9.241578E-15    1 
 5.650000E+01  5.000000E-01  5.000000E-01  2.025532E+05  9.972059E+02  8.000001E+00  6.666809E-06  1.000001E-03  9.856082E-04  1.000219E-04  1.004456E-09  1.000000E-03 -6.064776E-15    1 
 5.750000E+01  5.000000E-01  5.000000E-01  2.025250E+05  9.972059E+02  8.000001E+00  6.666837E-06  1.000001E-03  9.856080E-04  1.000142E-04  1.002880E-09  1.000000E-03 -3.962093E-15    1 
 5.850000E+01  5.000000E-01  5.000000E-01  2.024968E+05  9.972059E+02  8.000000E+00  6.666855E-06  1.000001E-03  9.856079E-04  1.000091E-04  1.001855E-09  1.000000E-03 -2.577145E-15    1 
 5.950000E+01  5.000000E-01  5.000000E-01  2.024685E+05  9.972059E+02  8.000000E+00  6.666867E-06  1.000001E-03  9.856078E-04  1.000059E-04  1.001190E-09  1.000000E-03 -1.669230E-15    1 
 6.050000E+01  5.000000E-01  5.000000E-01  2.024403E+05  9.972059E+02  8.000000E+00  6.666874E-06  1.000001E-03  9.856077E-04  1.000038E-04  1.000760E-09  1.000000E-03 -1.076746E-15    1 
 6.150000E+01  5.000000E-01  5.000000E-01  2.024121E+05  9.972059E+02  8.000000E+00  6.666879E-06  1.000001E-03  9.856076E-04  1.000024E-04  1.000484E-09  1.000000E-03 -6.918048E-16    1 
 6.250000E+01  5.000000E-01  5.000000E-01  2.023838E+05  9.972058E+02  8.000000E+00  6.666882E-06  1.000001E-03  9.856076E-04  1.000016E-04  1.000307E-09  1.000000E-03 -4.427747E-16    1 
 6.350000E+01  5.000000E-01  5.000000E-01  2.023556E+05  9.972058E+02  8.000000E+00  6.666884E-06  1.000000E-03  9.856076E-04  1.000010E-04  1.000195E-09  1.000000E-03 -2.823271E-16    1 
 6.450000E+01  5.000000E-01  5.000000E-01  2.023274E+05  9.972058E+02  8.000000E+00  6.666885E-06  1.000000E-03  9.856076E-04  1.000006E-04  1.000123E-09  1.000000E-03 -1.793703E-16    1 
 6.550000E+01  5.000000E-01  5.000000E-01  2.022991E+05  9.972058E+02  8.000000E+00  6.666886E-06  1.000000E-03  9.856075E-04  1.000004E-04  1.000077E-09  1.000000E-03 -1.135554E-16    1 
 6.650000E+01  5.000000E-01  5.000000E-01  2.022709E+05  9.972058E+02  8.000000E+00  6.666886E-06  1.000000E-03  9.856075E-04  1.000003E-04  1.000049E-09  1.000000E-03 -7.164491E-17    1 
 6.750000E+01  5.000000E-01  5.000000E-01  2.022426E+05  9.972058E+02  8.000000E+00  6.666887E-06  1.000000E-03  9.856075E-04  1.000002E-04  1.000030E-09  1.000000E-03 -4.505285E-17    1 
 6.850000E+01  5.000000E-01  5.000000E-01  2.022144E+05  9.972058E+02  8.000000E+00  6.666887E-06  1.000000E-03  9.856075E-04  1.000001E-04  1.000019E-09  1.000000E-03 -2.823786E-17    1 
 6.950000E+01  5.000000E-01  5.000000E-01  2.021862E+05  9.972058E+02  8.000000E+00  6.666887E-06  1.000000E-03  9.856075E-04  1.000001E-04  1.000012E-09  1.000000E-03 -1.764278E-17    1 
 7.050000E+01  5.000000E-01  5.000000E-01  2.021579E+05  9.972057E+02  8.000000E+00  6.666887E-06  1.000000E-03  9.856075E-04  1.000001E-04  1.000008E-09  1.000000E-03 -1.098943E-17    1 
 7.150000E+01  5.000000E-01  5.000000E-01  2.021297E+05  9.972057E+02  8.000000E+00  6.666887E-06  1.000000E-03  9.856075E-04  1.000001E-04  1.000005E-09  1.000000E-03 -6.824763E-18    1 
 7.250000E+01  5.000000E-01  5.000000E-01  2.021015E+05  9.972057E+02  8.000000E+00  6.666887E-06  1.000000E-03  9.856075E-04  1.000000E-04  1.000003E-09  1.000000E-03 -4.225953E-18    1 
 7.350000E+01  5.000000E-01  5.000000E-01  2.020732E+05  9.972057E+02  8.000000E+00  6.666887E-06  1.000000E-03  9.856074E-04  1.000000E-04  1.000002E-09  1.000000E-03 -2.607692E-18    1 
 7.450000E+01  5.000000E-01  5.000000E-01  2.020450E+05  9.972057E+02  8.000000E+00  6.666886E-06  1.000000E-03  9.856074E-04  1.000000E-04  1.000001E-09  1.000000E-03 -1.609379E-18    1 
 7.550000E+01  5.000000E-01  5.000000E-01  2.020168E+05  9.972057E+02  8.000000E+00  6.666886E-06  1.000000E-03  9.856074E-04  1.000000E-04  1.000001E-09  1.000000E-03 -9.867662E-19    1 
 7.650000E+01  5.000000E-01  5.000000E-01  2.019885E+05  9.972057E+02  8.000000E+00  6.666886E-06  1.000000E-03  9.856074E-04  1.000000E-04  1.000001E-09  1.000000E-03 -6.030731E-19    1 
 7.750000E+01  5.000000E-01  5.000000E-01  2.019603E+05  9.972056E+02  8.000000E+00  6.666886E-06  1.000000E-03  9.856074E-04  1.000000E-04  1.000001E-09  1.000000E-03 -3.685940E-19    1 
 7.850000E+01  5.000000E-01  5.000000E-01  2.019321E+05  9.972056E+02  8.000000E+00  6.666886E-06  1.000000E-03  9.856074E-04  1.000000E-04  1.000000E-09  1.000000E-03 -2.264855E-19    1 
 7.950000E+01  5.000000E-01  5.000000E-01  2.019038E+05  9.972056E+02  8.000000E+00  6.666886E-06  1.000000E-03  9.856074E-04  1.000000E-04  1.000000E-09  1.000000E-03 -1.350031E-19    1 
 8.050000E+01  5.000000E-01  5.000000E-01  2.018756E+05  9.972056E+02  8.000000E+00  6.666886E-06  1.000000E-03  9.856074E-04  1.000000E-04  1.000000E-09  1.000000E-03 -8.348877E-20    1 
 8.150000E+01  5.000000E-01  5.000000E-01  2.018474E+05  9.972056E+02  8.000000E+00  6.666886E-06  1.000000E-03  9.856073E-04  1.000000E-04  1.000000E-09  1.000000E-03 -5.062617E-20    1 
 8.250000E+01  5.000000E-01  5.000000E-01  2.018191E+05  9.972056E+02  8.000000E+00  6.666886E-06  1.000000E-03  9.856073E-04  1.000000E-04  1.000000E-09  1.000000E-03 -2.842171E-20    1 
 8.350000E+01  5.000000E-01  5.000000E-01  2.017909E+05  9.972056E+02  8.000000E+00  6.666886E-06  1.000000E-03  9.856073E-04  1.000000E-04  1.000000E-09  1.000000E-03 -1.687539E-20    1 
 8.450000E+01  5.000000E-01  5.000000E-01  2.017626E+05  9.972056E+02  8.000000E+00  6.666886E-06  1.000000E-03  9.856073E-04  1.000000E-04  1.000000E-09  1.000000E-03 -9.769963E-21    1 
 8.550000E+01  5.000000E-01  5.000000E-01  2.017344E+05  9.972055E+02  8.000000E+00  6.666886E-06  1.000000E-03  9.856073E-04  1.000000E-04  1.000000E-09  1.000000E-03 -7.105427E-21    1 
 8.650000E+01  5.000000E-01  5.000000E-01  2.017062E+05  9.972055E+02  8.000000E+00  6.666885E-06  1.000000E-03  9.856073E-04  1.000000E-04  1.000000E-09  1.000000E-03 -4.440892E-21    1 
 8.750000E+01  5.000000E-01  5.000000E-01  2.016779E+05  9.972055E+02  8.000000E+00  6.666885E-06  1.000000E-03  9.856073E-04  1.000000E-04  1.000000E-09  1.000000E-03 -2.664535E-21    1 
 8.850000E+01  5.000000E-01  5.000000E-01  2.016497E+05  9.972055E+02  8.000000E+00  6.666885E-06  1.000000E-03  9.856073E-04  1.000000E-04  1.000000E-09  1.000000E-03 -8.881784E-22    1 
 8.950000E+01  5.000000E-01  5.000000E-01  2.016215E+05  9.972055E+02  8.000000E+00  6.666885E-06  1.000000E-03  9.856072E-04  1.000000E-04  1.000000E-09  1.000000E-03 -8.881784E-22    1 
 9.050000E+01  5.000000E-01  5.000000E-01  2.015932E+05  9.972055E+02  8.000000E+00  6.666885E-06  1.000000E-03  9.856072E-04  1.000000E-04  1.000000E-09  1.000000E-03  8.881784E-22    1 
 9.150000E+01  5.000000E-01  5.000000E-01  2.015650E+05  9.972055E+02  8.000000E+00  6.666885E-06  1.000000E-03  9.856072E-04  1.000000E-04  1.000000E-09  1.000000E-03 -1.776357E-21    1 
 9.250000E+01  5.000000E-01  5.000000E-01  2.015368E+05  9.972055E+02  8.000000E+00  6.666885E-06  1.000000E-03  9.856072E-04  1.000000E-04  1.000000E-09  1.000000E-03  8.881784E-22    1 
 9.350000E+01  5.000000E-01  5.000000E-01  2.015085E+05  9.972054E+02  8.000000E+00  6.666885E-06  1.000000E-03  9.856072E-04  1.000000E-04  1.000000E-09  1.000000E-03 -8.881784E-22    1 
 9.450000E+01  5.000000E-01  5.000000E-01  2.014803E+05  9.972054E+02  8.000000E+00  6.666885E-06  1.000000E-03  9.856072E-04  1.000000E-04  1.000000E-09  1.000000E-03 -1.776357E-21    1 
 9.550000E+01  5.000000E-01  5.000000E-01  2.014521E+05  9.972054E+02  8.000000E+00  6.666885E-06  1.000000E-03  9.856072E-04  1.000000E-04  1.000000E-09  1.000000E-03 -8.881784E-22    1 
 9.650000E+01  5.000000E-01  5.000000E-01  2.014238E+05  9.972054E+02  8.000000E+00  6.666885E-06  1.000000E-03  9.856072E-04  1.000000E-04  1.000000E-09  1.000000E-03  8.881784E-22    1 
 9.750000E+01  5.000000E-01  5.000000E-01  2.013956E+05  9.972054E+02  8.000000E+00  6.666885E-06  1.000000E-03  9.856071E-04  1.000000E-04  1.000000E-09  1.000000E-03  1.776357E-21    1 
 9.850000E+01  5.000000E-01  5.000000E-01  2.013674E+05  9.972054E+02  8.000000E+00  6.666884E-06  1.000000E-03  9.856071E-04  1.000000E-04  1.000000E-09  1.000000E-03  8.881784E-22    1 
 9.950000E+01  5.000000E-01  5.000000E-01  2.013391E+05  9.972054E+02  8.000000E+00  6.666884E-06  1.000000E-03  9.856071E-04  1.000000E-04  1.000000E-09  1.000000E-03  1.652012E-19    1 
